 Gaussian 16, Revision C.01,
 Gaussian 16:  ES64L-G16RevC.01  3-Jul-2019

 ----------------------------------------------------------------------
 #p w1u scf(verytight, maxcycles=1000) opt(calcfc, maxcyc=1000) int(gri
 d=ultrafine)
 ----------------------------------------------------------------------

 ------
 O2_w1u
 ------
 Symbolic Z-matrix:
 Charge =  0 Multiplicity = 3

 SCF Done:  E(UB3LYP) =  -150.376014328     A.U. after   10 cycles
 SCF Done:  E(UB3LYP) =  -150.380811128     A.U. after    9 cycles
 SCF Done:  E(UB3LYP) =  -150.380944291     A.U. after    7 cycles
 Optimization completed.
    -- Stationary point found.

 1\1\GINC-MEDIAWIKI\FOpt\UB3LYP\CC-pVTZ+d\O2(3)\SAURABH\28-Feb-2022\0\\
 #p w1u scf(verytight, maxcycles=1000) opt(calcfc, maxcyc=1000) int(gri
 d=ultrafine)\\O2_w1u\\0,3\O,-4.3096963284,2.9951859296,0.\O,-3.1222836
 716,3.2055040704,0.\\Version=ES64L-G16RevC.01\State=3-SGG\HF=-150.3809
 443\S2=2.008215\S2-1=0.\S2A=2.000035\RMSD=2.110e-09\RMSF=5.783e-05\Dip
 ole=0.,0.,0.\Quadrupole=-0.2515007,0.1197384,0.1317623,-0.0678847,0.,0
 .\PG=D*H [C*(O1.O1)]\\@
 The archive entry for this job was punched.

 Normal termination of Gaussian 16 at Mon Feb 28 19:23:06 2022.

 -------------------------------------------------------------
 #P Geom=AllCheck Guess=TCheck SCRF=Check B3LYP/cc-pVTZ+d Freq
 -------------------------------------------------------------

 Structure from the checkpoint file:  "O2_triplet.chk"
 ------
 O2_w1u
 ------
 Charge =  0 Multiplicity = 3

 SCF Done:  E(UB3LYP) =  -150.380944291     A.U. after    1 cycles

  Exact polarizability:       4.723      -0.000       4.723      -0.000      -0.000      13.449
 Approx polarizability:       5.998       0.000       5.998      -0.000      -0.000      24.382

                      1
                     SGG
 Frequencies --   1628.1879
 Red. masses --     15.9949
 Frc consts  --     24.9828
 IR Inten    --      0.0000

 - Thermochemistry -
 -------------------
 Temperature   298.150 Kelvin.  Pressure   1.00000 Atm.
 Atom     1 has atomic number  8 and mass  15.99491

 Molecular mass:    31.98983 amu.
 Principal axes and moments of inertia in atomic units:
                           1         2         3
     Eigenvalues --    -0.00000  41.53064  41.53064
           X           -0.00000   0.07645   0.99707
           Y           -0.00000   0.99707  -0.07645
           Z            1.00000   0.00000   0.00000
 This molecule is a prolate symmetric top.
 Rotational symmetry number  2.
 Rotational temperature (Kelvin)      2.08554
 Rotational constant (GHZ):          43.455659
 Zero-point vibrational energy       9738.7 (Joules/Mol)
                                    2.32761 (Kcal/Mol)
 Vibrational temperatures:   2342.60
          (Kelvin)

 Zero-point correction=                           0.003709 (Hartree/Particle)
 Thermal correction to Energy=                    0.006073
 Thermal correction to Enthalpy=                  0.007017
 Thermal correction to Gibbs Free Energy=        -0.016256
 Sum of electronic and zero-point Energies=           -150.377235
 Sum of electronic and thermal Energies=              -150.374872
 Sum of electronic and thermal Enthalpies=            -150.373927
 Sum of electronic and thermal Free Energies=         -150.397200

                     E (Thermal)             CV                S
                      KCal/Mol        Cal/Mol-Kelvin    Cal/Mol-Kelvin
 Total                    3.811              5.016             48.982
 Electronic               0.000              0.000              2.183
 Translational            0.889              2.981             36.321
 Rotational               0.592              1.987             10.471
 Vibrational              2.329              0.048              0.007

 Optimization completed.
    -- Stationary point found.

 1\1\GINC-MEDIAWIKI\Freq\UB3LYP\CC-pVTZ+d\O2(3)\SAURABH\28-Feb-2022\0\\
 #P Geom=AllCheck Guess=TCheck SCRF=Check B3LYP/cc-pVTZ+d Freq\\O2_w1u\
 \0,3\O,-4.3096963284,2.9951859296,0.\O,-3.1222836716,3.2055040704,0.\\
 Version=ES64L-G16RevC.01\State=3-SGG\HF=-150.3809443\S2=2.008215\S2-1=
 0.\S2A=2.000035\RMSD=7.592e-11\RMSF=5.782e-05\ZeroPoint=0.0037093\Ther
 mal=0.0060726\ETot=-150.3748717\HTot=-150.3739275\GTot=-150.3972004\Di
 pole=0.,0.,0.\DipoleDeriv=0.,0.,0.,0.,0.,0.,0.,0.,0.,0.,0.,0.,0.,0.,0.
 ,0.,0.,0.\Polar=13.1832517,1.4984975,4.9884635,0.,0.,4.7230451\Quadrup

 Normal termination of Gaussian 16 at Mon Feb 28 19:23:10 2022.

 -----------------------------------------------------------------
 #P Geom=AllCheck Guess=TCheck SCRF=Check CCSD(T)/augh-cc-pVDZ+2df
 -----------------------------------------------------------------

 Structure from the checkpoint file:  "O2_triplet.chk"
 ------
 O2_w1u
 ------
 Charge =  0 Multiplicity = 3

 SCF Done:  E(UHF) =  -149.642705173     A.U. after   10 cycles
 E2 =    -0.3606583993D+00 EUMP2 =    -0.15000336357263D+03
 CCSD(T)
 CCSD(T)= -0.15002078860D+03
 .0092518\CCSD=-150.0086084\CCSD(T)=-150.0207886\S2=2.046137\S2-1=2.011
 Normal termination of Gaussian 16 at Mon Feb 28 19:23:13 2022.

 -----------------------------------------------------------------
 #P Geom=AllCheck Guess=TCheck SCRF=Check CCSD(T)/augh-cc-pVTZ+2df
 -----------------------------------------------------------------

 Structure from the checkpoint file:  "O2_triplet.chk"
 ------
 O2_w1u
 ------
 Charge =  0 Multiplicity = 3

 SCF Done:  E(UHF) =  -149.678466298     A.U. after    9 cycles
 E2 =    -0.4420591569D+00 EUMP2 =    -0.15012052545469D+03
 CCSD(T)
 CCSD(T)= -0.15014094732D+03
 1236299\CCSD=-150.1220093\CCSD(T)=-150.1409473\S2=2.048216\S2-1=2.0121
 Normal termination of Gaussian 16 at Mon Feb 28 19:23:24 2022.

 Structure from the checkpoint file:  "O2_triplet.chk"
 ------
 O2_w1u
 ------
 Charge =  0 Multiplicity = 3

 SCF Done:  E(UHF) =  -149.688757621     A.U. after    8 cycles
 E2 =    -0.4714654282D+00 EUMP2 =    -0.15016022304911D+03
 Normal termination of Gaussian 16 at Mon Feb 28 19:23:42 2022.

 Structure from the checkpoint file:  "O2_triplet.chk"
 ------
 O2_w1u
 ------
 Charge =  0 Multiplicity = 3

 SCF Done:  E(UHF) =  -149.676104652     A.U. after    8 cycles
 E2 =    -0.4528257494D+00 EUMP2 =    -0.15012893040184D+03
 CCSD(T)
 CCSD(T)= -0.15014674299D+03
 1277007\CCSD(T)=-150.146743\S2=2.042654\S2-1=2.008621\S2A=2.000928\RMS
 Normal termination of Gaussian 16 at Mon Feb 28 19:24:00 2022.

                         Standard orientation:
 ---------------------------------------------------------------------
 Center     Atomic      Atomic             Coordinates (Angstroms)
 Number     Number       Type             X           Y           Z
 ---------------------------------------------------------------------
      1          8           0       -0.000000   -0.000000    0.602947
      2          8           0        0.000000   -0.000000   -0.602947
 ---------------------------------------------------------------------

 SCF Done:  E(UHF) =  -149.779990559     A.U. after    8 cycles
 E2 =    -0.5599435855D+00 EUMP2 =    -0.15033993414426D+03
 CCSD(T)
 CCSD(T)= -0.15036109801D+03

 The electronic state is 3-SGG.
 Alpha  occ. eigenvalues --  -20.76661 -20.76595  -1.71685  -1.20591  -0.84092
 Alpha  occ. eigenvalues --   -0.84092  -0.76294  -0.55367  -0.55367
 Alpha virt. eigenvalues --    0.37651   0.67386   0.67386   0.70879   0.73193
 Alpha virt. eigenvalues --    0.73759   0.78568   0.78568   1.20713   1.43846
 Alpha virt. eigenvalues --    1.43846   1.53229   1.53229   1.84908   1.84908

  Beta  occ. eigenvalues --  -20.71255 -20.71134  -1.58594  -0.99423  -0.70223
  Beta  occ. eigenvalues --   -0.57537  -0.57537
  Beta virt. eigenvalues --    0.11045   0.11045   0.43057   0.72986   0.73638
  Beta virt. eigenvalues --    0.74018   0.74018   0.77658   0.87651   0.87651
  Beta virt. eigenvalues --    1.23943   1.49055   1.49055   1.59019   1.59019

 Mulliken charges and spin densities:
               1          2
     1  O   -0.000000   1.000000
     2  O   -0.000000   1.000000
 Sum of Mulliken charges =  -0.00000   2.00000

 Dipole moment (field-independent basis, Debye):
    X=             -0.0000    Y=             -0.0000    Z=             -0.0000  Tot=              0.0000
 Quadrupole moment (field-independent basis, Debye-Ang):
   XX=             -9.9229   YY=             -9.9229   ZZ=            -10.3135
   XY=             -0.0000   XZ=              0.0000   YZ=              0.0000

 43335\CCSD=-150.3411054\CCSD(T)=-150.361098\S2=2.042671\S2-1=2.008614\
 Normal termination of Gaussian 16 at Mon Feb 28 19:24:22 2022.
