 Gaussian 16, Revision C.01,
 Gaussian 16:  ES64L-G16RevC.01  3-Jul-2019

 ----------------------------------------------------------------------
 #p w1u scf(verytight, maxcycles=1000) opt(calcfc, maxcyc=1000) int(gri
 d=ultrafine)
 ----------------------------------------------------------------------

 ------
 OH_w1u
 ------
 Symbolic Z-matrix:
 Charge =  0 Multiplicity = 2

 SCF Done:  E(UB3LYP) =  -75.7639196541     A.U. after   11 cycles
 SCF Done:  E(UB3LYP) =  -75.7641254126     A.U. after    8 cycles
 SCF Done:  E(UB3LYP) =  -75.7641260640     A.U. after    7 cycles
 Optimization completed.
    -- Stationary point found.
 Normal termination of Gaussian 16 at Wed Feb 23 16:41:47 2022.

 -------------------------------------------------------------
 #P Geom=AllCheck Guess=TCheck SCRF=Check B3LYP/cc-pVTZ+d Freq
 -------------------------------------------------------------

 Structure from the checkpoint file:  "OH_w1u.chk"
 ------
 OH_w1u
 ------
 Charge =  0 Multiplicity = 2

 SCF Done:  E(UB3LYP) =  -75.7641260640     A.U. after    1 cycles

  Exact polarizability:       4.067       0.000       3.819       0.000      -0.000       7.154
 Approx polarizability:       4.368       0.000       4.505      -0.000      -0.000       9.039

                      1
                     SG
 Frequencies --   3696.3795
 Red. masses --      1.0671
 Frc consts  --      8.5902
 IR Inten    --      8.6524

 - Thermochemistry -
 -------------------
 Temperature   298.150 Kelvin.  Pressure   1.00000 Atm.
 Atom     1 has atomic number  8 and mass  15.99491

 Molecular mass:    17.00274 amu.
 Principal axes and moments of inertia in atomic units:
                           1         2         3
     Eigenvalues --     0.00000   3.21602   3.21602
           X           -0.00000   0.96409   0.26556
           Y           -0.00000  -0.26556   0.96409
           Z            1.00000   0.00000   0.00000
 This molecule is a prolate symmetric top.
 Rotational symmetry number  1.
 Rotational temperature (Kelvin)     26.93199
 Rotational constant (GHZ):         561.171539
 Zero-point vibrational energy      22109.3 (Joules/Mol)
                                    5.28424 (Kcal/Mol)
 Vibrational temperatures:   5318.27
          (Kelvin)

 Zero-point correction=                           0.008421 (Hartree/Particle)
 Thermal correction to Energy=                    0.010781
 Thermal correction to Enthalpy=                  0.011726
 Thermal correction to Gibbs Free Energy=        -0.008505
 Sum of electronic and zero-point Energies=            -75.755705
 Sum of electronic and thermal Energies=               -75.753345
 Sum of electronic and thermal Enthalpies=             -75.752400
 Sum of electronic and thermal Free Energies=          -75.772631

                     E (Thermal)             CV                S
                      KCal/Mol        Cal/Mol-Kelvin    Cal/Mol-Kelvin
 Total                    6.765              4.968             42.579
 Electronic               0.000              0.000              1.377
 Translational            0.889              2.981             34.437
 Rotational               0.592              1.987              6.765
 Vibrational              5.284              0.000              0.000

 Optimization completed.
    -- Stationary point found.
 Normal termination of Gaussian 16 at Wed Feb 23 16:41:51 2022.

 -----------------------------------------------------------------
 #P Geom=AllCheck Guess=TCheck SCRF=Check CCSD(T)/augh-cc-pVDZ+2df
 -----------------------------------------------------------------

 Structure from the checkpoint file:  "OH_w1u.chk"
 ------
 OH_w1u
 ------
 Charge =  0 Multiplicity = 2

 SCF Done:  E(UHF) =  -75.4032535760     A.U. after   12 cycles
 E2 =    -0.1615665526D+00 EUMP2 =    -0.75564820128602D+02
 CCSD(T)
 CCSD(T)= -0.75583130914D+02
 5.5792945\CCSD=-75.579891\CCSD(T)=-75.5831309\S2=0.756522\S2-1=0.7513\
 Normal termination of Gaussian 16 at Wed Feb 23 16:41:53 2022.

 -----------------------------------------------------------------
 #P Geom=AllCheck Guess=TCheck SCRF=Check CCSD(T)/augh-cc-pVTZ+2df
 -----------------------------------------------------------------

 Structure from the checkpoint file:  "OH_w1u.chk"
 ------
 OH_w1u
 ------
 Charge =  0 Multiplicity = 2

 SCF Done:  E(UHF) =  -75.4213837280     A.U. after   10 cycles
 E2 =    -0.2044808509D+00 EUMP2 =    -0.75625864578956D+02
 CCSD(T)
 CCSD(T)= -0.75645125094D+02
 =-75.638883\CCSD=-75.6392617\CCSD(T)=-75.6451251\S2=0.757116\S2-1=0.75
 Normal termination of Gaussian 16 at Wed Feb 23 16:41:56 2022.

 --------------------------------------------------------------
 #P Geom=AllCheck Guess=TCheck SCRF=Check CCSD/augh-cc-pVQZ+2df
 --------------------------------------------------------------

 Structure from the checkpoint file:  "OH_w1u.chk"
 ------
 OH_w1u
 ------
 Charge =  0 Multiplicity = 2

 SCF Done:  E(UHF) =  -75.4264010791     A.U. after    9 cycles
 E2 =    -0.2199539289D+00 EUMP2 =    -0.75646355007992D+02
 Normal termination of Gaussian 16 at Wed Feb 23 16:42:04 2022.

 --------------------------------------------------------
 #P Geom=AllCheck Guess=TCheck SCRF=Check CCSD(T)/MTSmall
 --------------------------------------------------------

 Structure from the checkpoint file:  "OH_w1u.chk"
 ------
 OH_w1u
 ------
 Charge =  0 Multiplicity = 2

 SCF Done:  E(UHF) =  -75.4192118798     A.U. after   11 cycles
 E2 =    -0.2092509762D+00 EUMP2 =    -0.75628462855948D+02
 CCSD(T)
 CCSD(T)= -0.75646439736D+02
 75.6408461\CCSD(T)=-75.6464397\S2=0.756165\S2-1=0.750827\S2A=0.750021\
 Normal termination of Gaussian 16 at Wed Feb 23 16:42:08 2022.

                         Standard orientation:
 ---------------------------------------------------------------------
 Center     Atomic      Atomic             Coordinates (Angstroms)
 Number     Number       Type             X           Y           Z
 ---------------------------------------------------------------------
      1          8           0        0.000000    0.000000    0.108291
      2          1           0       -0.000000   -0.000000   -0.866332
 ---------------------------------------------------------------------

 SCF Done:  E(UHF) =  -75.4711284632     A.U. after    8 cycles
 E2 =    -0.2628238687D+00 EUMP2 =    -0.75733952331909D+02
 CCSD(T)
 CCSD(T)= -0.75753579293D+02

 Unable to determine electronic state:  an orbital has unidentified symmetry.
 Alpha  occ. eigenvalues --  -20.64566  -1.38359  -0.67490  -0.65148  -0.55526
 Alpha virt. eigenvalues --    0.14078   0.54457   0.68042   0.70967   0.75481
 Alpha virt. eigenvalues --    0.86511   0.88389   0.94941   1.44375   1.66515
 Alpha virt. eigenvalues --    1.66555   1.96467   1.98214   2.02768   2.46402

  Beta  occ. eigenvalues --  -20.60662  -1.22570  -0.63215  -0.50934
  Beta virt. eigenvalues --    0.11331   0.14903   0.55343   0.69308   0.77079
  Beta virt. eigenvalues --    0.86926   0.88127   0.88703   0.98090   1.45913
  Beta virt. eigenvalues --    1.74628   1.74723   1.97258   2.03553   2.05453

 Mulliken charges and spin densities:
               1          2
     1  O   -0.244542   1.044599
     2  H    0.244542  -0.044599
 Sum of Mulliken charges =   0.00000   1.00000

 Dipole moment (field-independent basis, Debye):
    X=             -0.0000    Y=             -0.0000    Z=             -1.7855  Tot=              1.7855
 Quadrupole moment (field-independent basis, Debye-Ang):
   XX=             -6.5417   YY=             -5.3074   ZZ=             -4.4227
   XY=             -0.0000   XZ=             -0.0000   YZ=             -0.0000

 5.74736\CCSD=-75.7476181\CCSD(T)=-75.7535793\S2=0.756157\S2-1=0.750818
 CCSD(T)/AVDZ+2d=-75.5831309\CCSD(T)/AVTZ+2d1f=0.\TExt=-0.0068387\CCSD(
 Normal termination of Gaussian 16 at Wed Feb 23 16:42:13 2022.
