 Gaussian 16, Revision C.01,
 Gaussian 16:  ES64L-G16RevC.01  3-Jul-2019

 ----------------------------------------------------------------------
 #p w1u scf(verytight, maxcycles=1000) opt(calcfc, maxcyc=1000) int(gri
 d=ultrafine)
 ----------------------------------------------------------------------

 -------
 OOH_w1u
 -------
 Symbolic Z-matrix:
 Charge =  0 Multiplicity = 2

 SCF Done:  E(UB3LYP) =  -150.968129900     A.U. after   14 cycles
 SCF Done:  E(UB3LYP) =  -150.968478859     A.U. after   10 cycles
 SCF Done:  E(UB3LYP) =  -150.968479777     A.U. after    8 cycles
 Optimization completed.
    -- Stationary point found.
 Normal termination of Gaussian 16 at Wed Feb 23 16:42:23 2022.

 -------------------------------------------------------------
 #P Geom=AllCheck Guess=TCheck SCRF=Check B3LYP/cc-pVTZ+d Freq
 -------------------------------------------------------------

 Structure from the checkpoint file:  "OOH_w1u.chk"
 -------
 OOH_w1u
 -------
 Charge =  0 Multiplicity = 2

 SCF Done:  E(UB3LYP) =  -150.968479777     A.U. after    1 cycles

  Exact polarizability:       8.330       1.613      15.744       0.000      -0.000       6.064
 Approx polarizability:      10.740       1.905      24.882       0.000      -0.000       7.614

                      1                      2                      3
                     A'                     A'                     A'
 Frequencies --   1160.4999              1432.6008              3601.2134
 Red. masses --     12.2460                 1.1410                 1.0687
 Frc consts  --      9.7170                 1.3797                 8.1661
 IR Inten    --     28.4400                41.5113                24.2542

 - Thermochemistry -
 -------------------
 Temperature   298.150 Kelvin.  Pressure   1.00000 Atm.
 Atom     1 has atomic number  8 and mass  15.99491

 Molecular mass:    32.99765 amu.
 Principal axes and moments of inertia in atomic units:
                           1         2         3
     Eigenvalues --     2.90982  53.57965  56.48947
           X            0.05972   0.99822   0.00000
           Y            0.99822  -0.05972   0.00000
           Z           -0.00000  -0.00000   1.00000
 This molecule is an asymmetric top.
 Rotational symmetry number  1.
 Rotational temperatures (Kelvin)     29.76606     1.61655     1.53328
 Rotational constants (GHZ):         620.22406    33.68333    31.94828
 Zero-point vibrational energy      37050.2 (Joules/Mol)
                                    8.85522 (Kcal/Mol)
 Vibrational temperatures:   1669.70  2061.19  5181.34
          (Kelvin)

 Zero-point correction=                           0.014112 (Hartree/Particle)
 Thermal correction to Energy=                    0.016970
 Thermal correction to Enthalpy=                  0.017915
 Thermal correction to Gibbs Free Energy=        -0.008067
 Sum of electronic and zero-point Energies=           -150.954368
 Sum of electronic and thermal Energies=              -150.951509
 Sum of electronic and thermal Enthalpies=            -150.950565
 Sum of electronic and thermal Free Energies=         -150.976547

                     E (Thermal)             CV                S
                      KCal/Mol        Cal/Mol-Kelvin    Cal/Mol-Kelvin
 Total                   10.649              6.288             54.683
 Electronic               0.000              0.000              1.377
 Translational            0.889              2.981             36.413
 Rotational               0.889              2.981             16.828
 Vibrational              8.872              0.327              0.064

 Optimization completed.
    -- Stationary point found.
 Normal termination of Gaussian 16 at Wed Feb 23 16:42:28 2022.

 -----------------------------------------------------------------
 #P Geom=AllCheck Guess=TCheck SCRF=Check CCSD(T)/augh-cc-pVDZ+2df
 -----------------------------------------------------------------

 Structure from the checkpoint file:  "OOH_w1u.chk"
 -------
 OOH_w1u
 -------
 Charge =  0 Multiplicity = 2

 SCF Done:  E(UHF) =  -150.202115389     A.U. after   18 cycles
 E2 =    -0.3654389260D+00 EUMP2 =    -0.15056755431545D+03
 CCSD(T)
 CCSD(T)= -0.15059953950D+03
 19\PMP3-0=-150.5778065\MP4SDQ=-150.5848278\CCSD=-150.587678\CCSD(T)=-1
 Normal termination of Gaussian 16 at Wed Feb 23 16:42:32 2022.

 -----------------------------------------------------------------
 #P Geom=AllCheck Guess=TCheck SCRF=Check CCSD(T)/augh-cc-pVTZ+2df
 -----------------------------------------------------------------

 Structure from the checkpoint file:  "OOH_w1u.chk"
 -------
 OOH_w1u
 -------
 Charge =  0 Multiplicity = 2

 SCF Done:  E(UHF) =  -150.239434085     A.U. after   14 cycles
 E2 =    -0.4524295162D+00 EUMP2 =    -0.15069186360110D+03
 CCSD(T)
 CCSD(T)= -0.15072607298D+03
 998\PMP3-0=-150.6997957\MP4SDQ=-150.7055551\CCSD=-150.7075083\CCSD(T)=
 Normal termination of Gaussian 16 at Wed Feb 23 16:42:52 2022.

 --------------------------------------------------------------
 #P Geom=AllCheck Guess=TCheck SCRF=Check CCSD/augh-cc-pVQZ+2df
 --------------------------------------------------------------

 Structure from the checkpoint file:  "OOH_w1u.chk"
 -------
 OOH_w1u
 -------
 Charge =  0 Multiplicity = 2

 SCF Done:  E(UHF) =  -150.249497600     A.U. after   10 cycles
 E2 =    -0.4838972085D+00 EUMP2 =    -0.15073339480872D+03
 Normal termination of Gaussian 16 at Wed Feb 23 16:44:18 2022.

 --------------------------------------------------------
 #P Geom=AllCheck Guess=TCheck SCRF=Check CCSD(T)/MTSmall
 --------------------------------------------------------

 Structure from the checkpoint file:  "OOH_w1u.chk"
 -------
 OOH_w1u
 -------
 Charge =  0 Multiplicity = 2

 SCF Done:  E(UHF) =  -150.237063307     A.U. after   13 cycles
 E2 =    -0.4620011444D+00 EUMP2 =    -0.15069906445186D+03
 CCSD(T)
 CCSD(T)= -0.15073053207D+03
 48253\MP4SDQ=-150.7105069\CCSD=-150.7122421\CCSD(T)=-150.7305321\S2=0.
 Normal termination of Gaussian 16 at Wed Feb 23 16:44:59 2022.

                         Standard orientation:
 ---------------------------------------------------------------------
 Center     Atomic      Atomic             Coordinates (Angstroms)
 Number     Number       Type             X           Y           Z
 ---------------------------------------------------------------------
      1          8           0        0.055362    0.718634    0.000000
      2          8           0        0.055362   -0.610419    0.000000
      3          1           0       -0.885791   -0.865721    0.000000
 ---------------------------------------------------------------------

 SCF Done:  E(UHF) =  -150.340797473     A.U. after   11 cycles
 E2 =    -0.5692775303D+00 EUMP2 =    -0.15091007500320D+03
 CCSD(T)
 CCSD(T)= -0.15094481661D+03

 The electronic state is 2-A".
 Alpha  occ. eigenvalues --  -20.69847 -20.68235  -1.57340  -1.20634  -0.76801
 Alpha  occ. eigenvalues --   -0.75293  -0.67026  -0.52302  -0.51953
 Alpha virt. eigenvalues --    0.13598   0.31739   0.54378   0.65257   0.69842
 Alpha virt. eigenvalues --    0.71827   0.73765   0.79638   0.80296   0.87394
 Alpha virt. eigenvalues --    0.91007   1.00239   1.18496   1.42469   1.49066

  Beta  occ. eigenvalues --  -20.67499 -20.65825  -1.51125  -1.10331  -0.74880
  Beta  occ. eigenvalues --   -0.64671  -0.56808  -0.48385
  Beta virt. eigenvalues --    0.12851   0.13769   0.34892   0.54468   0.65458
  Beta virt. eigenvalues --    0.72729   0.75071   0.75093   0.81131   0.87358
  Beta virt. eigenvalues --    0.89794   0.91454   1.00771   1.19683   1.43480

 Mulliken charges and spin densities:
               1          2
     1  O   -0.064855   0.938819
     2  O   -0.182579   0.069602
     3  H    0.247435  -0.008421
 Sum of Mulliken charges =  -0.00000   1.00000

 Dipole moment (field-independent basis, Debye):
    X=             -1.7713    Y=             -0.9131    Z=             -0.0000  Tot=              1.9928
 Quadrupole moment (field-independent basis, Debye-Ang):
   XX=             -9.6168   YY=            -10.7991   ZZ=            -10.7478
   XY=              1.7400   XZ=              0.0000   YZ=              0.0000

 P3-0=-150.9185549\MP4SDQ=-150.924013\CCSD=-150.9255731\CCSD(T)=-150.94
 Normal termination of Gaussian 16 at Wed Feb 23 16:46:07 2022.
