 Gaussian 16, Revision C.01,
 Gaussian 16:  ES64L-G16RevC.01  3-Jul-2019

 ----------------------------------------------------------------------
 #p B3LYP/cc-PVTZ scf(verytight, maxcycles=1000) opt(calcfc, maxcyc=100
 0) freq(hpmodes) int(grid=ultrafine)
 ----------------------------------------------------------------------

 ------
 Mol_01
 ------
 Symbolic Z-matrix:
 Charge =  0 Multiplicity = 2

 SCF Done:  E(UB3LYP) =  -157.859938717     A.U. after   12 cycles
 SCF Done:  E(UB3LYP) =  -157.859939191     A.U. after    7 cycles
 Optimization completed.
    -- Stationary point found.

 1\1\GINC-MEDIAWIKI\FOpt\UB3LYP\CC-pVTZ\C4H9(2)\SAURABH\12-Apr-2022\0\\
 #p B3LYP/cc-PVTZ scf(verytight, maxcycles=1000) opt(calcfc, maxcyc=100
 0) freq(hpmodes) int(grid=ultrafine)\\Mol_01\\0,2\C,-1.3344076926,0.64
 59023537,0.0148371584\C,0.000026147,0.0000230246,-0.1479646687\C,1.226
 6171425,0.8326834017,0.0149287986\C,0.1078292198,-1.4786074168,0.01461
 90798\H,-2.1315727591,0.0483326332,-0.4328602061\H,-1.3604938433,1.641
 6544519,-0.4332778794\H,-1.6017929942,0.7756134896,1.0768144861\H,2.10
 21047245,0.3570600401,-0.4326213891\H,1.4722193076,0.9998836103,1.0769

 Normal termination of Gaussian 16 at Tue Apr 12 15:19:38 2022.

 -------------------------------------------------------------------
 #P Geom=AllCheck Guess=TCheck SCRF=Check GenChk UB3LYP/CC-pVTZ Freq
 -------------------------------------------------------------------

 Structure from the checkpoint file:  "Mol_01.chk"
 ------
 Mol_01
 ------
 Charge =  0 Multiplicity = 2

                         Standard orientation:
 ---------------------------------------------------------------------
 Center     Atomic      Atomic             Coordinates (Angstroms)
 Number     Number       Type             X           Y           Z
 ---------------------------------------------------------------------
      1          6           0        0.587488   -1.361150    0.014532
      2          6           0       -0.000027   -0.000011   -0.148270
      3          6           0       -1.472550    0.171814    0.014623
      4          6           0        0.885071    1.189347    0.014314
      5          1           0        1.581371   -1.430125   -0.433166
      6          1           0       -0.043758   -2.131690   -0.433583
      7          1           0        0.705018   -1.634109    1.076509
      8          1           0       -1.824088    1.104079   -0.432927
      9          1           0       -1.767707    0.205859    1.076623
     10          1           0       -2.029355   -0.654072   -0.433583
     11          1           0        1.867952    1.027801   -0.433852
     12          1           0        1.062775    1.427714    1.076254
     13          1           0        0.447901    2.084541   -0.433467
 ---------------------------------------------------------------------

 SCF Done:  E(UB3LYP) =  -157.859939191     A.U. after    1 cycles

 The electronic state is 2-A.
 Alpha  occ. eigenvalues --  -10.17905 -10.16264 -10.16264 -10.16264  -0.80444
 Alpha  occ. eigenvalues --   -0.69240  -0.69239  -0.53782  -0.44660  -0.44205
 Alpha  occ. eigenvalues --   -0.44204  -0.38787  -0.38787  -0.36898  -0.34671
 Alpha  occ. eigenvalues --   -0.34671  -0.17366
 Alpha virt. eigenvalues --    0.03030   0.07866   0.07866   0.09789   0.09790
 Alpha virt. eigenvalues --    0.10178   0.13607   0.13607   0.14612   0.16776
 Alpha virt. eigenvalues --    0.20243   0.20245   0.24800   0.25270   0.25271

  Beta  occ. eigenvalues --  -10.16521 -10.16345 -10.16345 -10.16341  -0.78773
  Beta  occ. eigenvalues --   -0.69014  -0.69014  -0.51923  -0.43831  -0.43830
  Beta  occ. eigenvalues --   -0.42708  -0.38175  -0.38174  -0.36788  -0.34197
  Beta  occ. eigenvalues --   -0.34196
  Beta virt. eigenvalues --   -0.03672   0.03150   0.07952   0.07952   0.09877
  Beta virt. eigenvalues --    0.09877   0.10755   0.13872   0.13873   0.15391
  Beta virt. eigenvalues --    0.16787   0.20514   0.20516   0.25441   0.25442

 Mulliken charges and spin densities:
               1          2
     1  C   -0.282464  -0.047157
     2  C    0.042668   0.880149
     3  C   -0.282453  -0.047157
     4  C   -0.282457  -0.047159
     5  H    0.092850   0.010213
     6  H    0.092863   0.010243
     7  H    0.082526   0.066652
     8  H    0.092853   0.010210
     9  H    0.082520   0.066652
    10  H    0.092859   0.010245
    11  H    0.092857   0.010235
    12  H    0.082525   0.066654
    13  H    0.092853   0.010220
 Sum of Mulliken charges =  -0.00000   1.00000

 Dipole moment (field-independent basis, Debye):
    X=              0.0000    Y=              0.0000    Z=              0.1740  Tot=              0.1740
 Quadrupole moment (field-independent basis, Debye-Ang):
   XX=            -27.7938   YY=            -27.7939   ZZ=            -28.4714
   XY=             -0.0001   XZ=             -0.0000   YZ=             -0.0000

  Exact polarizability:      54.882       0.001      54.882      -0.001      -0.001      43.597
 Approx polarizability:      69.694       0.002      69.693      -0.001      -0.001      63.040

                      1                      2                      3
                      A                      A                      A
 Frequencies --    132.9968               133.2369               134.8186
 Red. masses --      1.0713                 1.0710                 1.0093
 Frc consts  --      0.0112                 0.0112                 0.0108
 IR Inten    --      0.0184                 0.0184                 0.0004

                      4                      5                      6
                      A                      A                      A
 Frequencies --    262.1915               379.8252               379.9802
 Red. masses --      2.3112                 2.0765                 2.0769
 Frc consts  --      0.0936                 0.1765                 0.1767
 IR Inten    --      2.9318                 0.1169                 0.1168

                      7                      8                      9
                      A                      A                      A
 Frequencies --    757.7653               937.9257               938.0411
 Red. masses --      3.6136                 1.2535                 1.2534
 Frc consts  --      1.2225                 0.6497                 0.6498
 IR Inten    --      1.3749                 0.5984                 0.5993

                     10                     11                     12
                      A                      A                      A
 Frequencies --    972.6887              1008.0016              1008.0918
 Red. masses --      1.2174                 1.6430                 1.6426
 Frc consts  --      0.6786                 0.9836                 0.9835
 IR Inten    --      0.0000                 1.8627                 1.8614

                     13                     14                     15
                      A                      A                      A
 Frequencies --   1097.1729              1294.2784              1294.3488
 Red. masses --      1.6164                 3.0035                 3.0052
 Frc consts  --      1.1464                 2.9644                 2.9664
 IR Inten    --      0.1818                 6.1943                 6.1912

                     16                     17                     18
                      A                      A                      A
 Frequencies --   1397.7567              1397.8094              1425.3273
 Red. masses --      1.2535                 1.2535                 1.2011
 Frc consts  --      1.4429                 1.4430                 1.4377
 IR Inten    --      3.3905                 3.3919                 2.2217

                     19                     20                     21
                      A                      A                      A
 Frequencies --   1468.5504              1471.2244              1471.3241
 Red. masses --      1.0433                 1.0639                 1.0640
 Frc consts  --      1.3257                 1.3568                 1.3571
 IR Inten    --      0.0010                 2.9426                 2.9383

                     22                     23                     24
                      A                      A                      A
 Frequencies --   1488.9202              1491.8940              1491.9784
 Red. masses --      1.0590                 1.0654                 1.0654
 Frc consts  --      1.3832                 1.3971                 1.3974
 IR Inten    --     16.9906                 2.7931                 2.7840

                     25                     26                     27
                      A                      A                      A
 Frequencies --   2914.1698              2914.1873              2922.4951
 Red. masses --      1.0630                 1.0630                 1.0662
 Frc consts  --      5.3187                 5.3187                 5.3652
 IR Inten    --     35.1973                35.2246                95.2585

                     28                     29                     30
                      A                      A                      A
 Frequencies --   3028.5368              3028.6184              3031.6386
 Red. masses --      1.0650                 1.0650                 1.0633
 Frc consts  --      5.7551                 5.7554                 5.7576
 IR Inten    --     23.3872                23.3413                37.0641

                     31                     32                     33
                      A                      A                      A
 Frequencies --   3070.4209              3074.9860              3075.0498
 Red. masses --      1.1025                 1.1014                 1.1014
 Frc consts  --      6.1240                 6.1357                 6.1360
 IR Inten    --      0.0081                48.7603                48.7114

 - Thermochemistry -
 -------------------
 Temperature   298.150 Kelvin.  Pressure   1.00000 Atm.
 Atom     1 has atomic number  6 and mass  12.00000

 Molecular mass:    57.07043 amu.
 Principal axes and moments of inertia in atomic units:
                           1         2         3
     Eigenvalues --   224.97129 224.97755 414.92350
           X            0.99970   0.02463   0.00010
           Y           -0.02463   0.99970   0.00007
           Z           -0.00010  -0.00008   1.00000
 This molecule is an asymmetric top.
 Rotational symmetry number  1.
 Rotational temperatures (Kelvin)      0.38500     0.38499     0.20875
 Rotational constants (GHZ):           8.02210     8.02187     4.34958
 Zero-point vibrational energy     304427.2 (Joules/Mol)
                                   72.75984 (Kcal/Mol)
 Warning -- explicit consideration of   6 degrees of freedom as
           vibrations may cause significant error
 Vibrational temperatures:    191.35   191.70   193.97   377.24   546.48
          (Kelvin)            546.71  1090.26  1349.47  1349.63  1399.48
                             1450.29  1450.42  1578.59  1862.18  1862.28
                             2011.06  2011.14  2050.73  2112.92  2116.76
                             2116.91  2142.22  2146.50  2146.62  4192.84
                             4192.87  4204.82  4357.39  4357.51  4361.85
                             4417.65  4424.22  4424.31

 Zero-point correction=                           0.115950 (Hartree/Particle)
 Thermal correction to Energy=                    0.122327
 Thermal correction to Enthalpy=                  0.123271
 Thermal correction to Gibbs Free Energy=         0.086496
 Sum of electronic and zero-point Energies=           -157.743989
 Sum of electronic and thermal Energies=              -157.737612
 Sum of electronic and thermal Enthalpies=            -157.736668
 Sum of electronic and thermal Free Energies=         -157.773444

                     E (Thermal)             CV                S
                      KCal/Mol        Cal/Mol-Kelvin    Cal/Mol-Kelvin
 Total                   76.761             20.635             77.400
 Electronic               0.000              0.000              1.377
 Translational            0.889              2.981             38.046
 Rotational               0.889              2.981             24.555
 Vibrational             74.984             14.673             13.422
 Vibration     1          0.613              1.920              2.902
 Vibration     2          0.613              1.920              2.899
 Vibration     3          0.613              1.919              2.876
 Vibration     4          0.669              1.742              1.647
 Vibration     5          0.750              1.513              1.040
 Vibration     6          0.750              1.513              1.039

 Optimization completed.
    -- Stationary point found.

 1\1\GINC-MEDIAWIKI\Freq\UB3LYP\CC-pVTZ\C4H9(2)\SAURABH\12-Apr-2022\0\\
 #P Geom=AllCheck Guess=TCheck SCRF=Check GenChk UB3LYP/CC-pVTZ Freq\\M
 ol_01\\0,2\C,-1.3344076926,0.6459023537,0.0148371584\C,0.000026147,0.0
 000230246,-0.1479646687\C,1.2266171425,0.8326834017,0.0149287986\C,0.1
 078292198,-1.4786074168,0.0146190798\H,-2.1315727591,0.0483326332,-0.4
 328602061\H,-1.3604938433,1.6416544519,-0.4332778794\H,-1.6017929942,0
 .7756134896,1.0768144861\H,2.1021047245,0.3570600401,-0.4326213891\H,1
 .4722193076,0.9998836103,1.0769281436\H,1.108018614,1.8216488047,-0.43

 Normal termination of Gaussian 16 at Tue Apr 12 15:23:08 2022.
