 Gaussian 16, Revision C.01,
 Gaussian 16:  ES64L-G16RevC.01  3-Jul-2019

 ----------------------------------------------------------------------
 #p B3LYP/cc-PVTZ scf(verytight, maxcycles=1000) opt(calcfc, maxcyc=100
 0) freq(hpmodes) int(grid=ultrafine)
 ----------------------------------------------------------------------

 ------
 Mol_03
 ------
 Symbolic Z-matrix:
 Charge =  0 Multiplicity = 2

 SCF Done:  E(UB3LYP) =  -308.231164693     A.U. after   14 cycles
 SCF Done:  E(UB3LYP) =  -308.250500972     A.U. after   13 cycles
 SCF Done:  E(UB3LYP) =  -308.254642250     A.U. after   14 cycles
 SCF Done:  E(UB3LYP) =  -308.255480272     A.U. after   13 cycles
 SCF Done:  E(UB3LYP) =  -308.255903595     A.U. after   13 cycles
 SCF Done:  E(UB3LYP) =  -308.256132745     A.U. after   13 cycles
 SCF Done:  E(UB3LYP) =  -308.256208036     A.U. after   13 cycles
 SCF Done:  E(UB3LYP) =  -308.256225917     A.U. after   12 cycles
 SCF Done:  E(UB3LYP) =  -308.256227683     A.U. after    9 cycles
 SCF Done:  E(UB3LYP) =  -308.256228864     A.U. after    8 cycles
 SCF Done:  E(UB3LYP) =  -308.256229203     A.U. after    7 cycles
 SCF Done:  E(UB3LYP) =  -308.256229217     A.U. after    7 cycles
 Optimization completed.
    -- Stationary point found.
 Normal termination of Gaussian 16 at Mon Apr 11 20:09:32 2022.

 -------------------------------------------------------------------
 #P Geom=AllCheck Guess=TCheck SCRF=Check GenChk UB3LYP/CC-pVTZ Freq
 -------------------------------------------------------------------

 Structure from the checkpoint file:  "Mol_03.chk"
 ------
 Mol_03
 ------
 Charge =  0 Multiplicity = 2

                         Standard orientation:
 ---------------------------------------------------------------------
 Center     Atomic      Atomic             Coordinates (Angstroms)
 Number     Number       Type             X           Y           Z
 ---------------------------------------------------------------------
      1          6           0        0.299981   -0.417790    1.502845
      2          6           0        0.398461    0.017356    0.081051
      3          6           0        1.599862   -0.630154   -0.616530
      4          6           0        0.416065    1.535827   -0.063131
      5          1           0        0.094122    0.282969    2.298536
      6          1           0        0.376328   -1.469121    1.746016
      7          1           0        2.525261   -0.270029   -0.168641
      8          1           0        1.599808   -0.375432   -1.676334
      9          1           0        1.564555   -1.714624   -0.518454
     10          8           0       -0.711641   -0.545907   -0.691519
     11          1           0        0.478580    1.814196   -1.114656
     12          1           0        1.276854    1.953596    0.460649
     13          1           0       -0.489456    1.969532    0.356241
     14          8           0       -1.968222   -0.013991   -0.203604
     15          1           0       -2.273367   -0.743339    0.352216
 ---------------------------------------------------------------------

 SCF Done:  E(UB3LYP) =  -308.256229217     A.U. after    1 cycles

 The electronic state is 2-A.
 Alpha  occ. eigenvalues --  -19.18111 -19.17594 -10.24234 -10.19126 -10.17184
 Alpha  occ. eigenvalues --  -10.16293  -1.11303  -0.91595  -0.78757  -0.70017
 Alpha  occ. eigenvalues --   -0.69383  -0.57043  -0.51582  -0.48129  -0.46389
 Alpha  occ. eigenvalues --   -0.45636  -0.42496  -0.39573  -0.39012  -0.38252
 Alpha  occ. eigenvalues --   -0.36490  -0.34845  -0.29438  -0.28188  -0.23083
 Alpha virt. eigenvalues --    0.01409   0.03391   0.07209   0.07758   0.08308
 Alpha virt. eigenvalues --    0.09484   0.10191   0.10717   0.13602   0.14596
 Alpha virt. eigenvalues --    0.15759   0.17701   0.19522   0.20985   0.25839

  Beta  occ. eigenvalues --  -19.17909 -19.17593 -10.24320 -10.17743 -10.17125
  Beta  occ. eigenvalues --  -10.16286  -1.11069  -0.91339  -0.77989  -0.69905
  Beta  occ. eigenvalues --   -0.66940  -0.56448  -0.51319  -0.47799  -0.45983
  Beta  occ. eigenvalues --   -0.45039  -0.42153  -0.39435  -0.38836  -0.37992
  Beta  occ. eigenvalues --   -0.36179  -0.34529  -0.29342  -0.27514
  Beta virt. eigenvalues --   -0.08189   0.01538   0.03539   0.07463   0.08014
  Beta virt. eigenvalues --    0.08709   0.09569   0.10327   0.10888   0.13650
  Beta virt. eigenvalues --    0.14678   0.15833   0.18286   0.19584   0.21338

 Mulliken charges and spin densities:
               1          2
     1  C   -0.331059   1.023736
     2  C    0.303622  -0.043276
     3  C   -0.285834   0.015672
     4  C   -0.293838   0.002442
     5  H    0.125616  -0.030857
     6  H    0.122096  -0.029804
     7  H    0.094224   0.000210
     8  H    0.101010   0.008159
     9  H    0.096486  -0.000162
    10  O   -0.208926   0.050820
    11  H    0.095723  -0.000878
    12  H    0.088719   0.000075
    13  H    0.104986   0.000088
    14  O   -0.236562  -0.000517
    15  H    0.223736   0.004292
 Sum of Mulliken charges =  -0.00000   1.00000

 Dipole moment (field-independent basis, Debye):
    X=              0.9089    Y=             -0.4452    Z=              1.5920  Tot=              1.8865
 Quadrupole moment (field-independent basis, Debye-Ang):
   XX=            -37.1403   YY=            -36.8281   ZZ=            -38.2397
   XY=              2.0452   XZ=             -3.3119   YZ=             -1.1218

  Exact polarizability:      63.214      -0.944      56.294      -2.697      -0.948      56.331
 Approx polarizability:      87.088      -1.899      76.036      -2.709       0.614      78.883

                      1                      2                      3
                      A                      A                      A
 Frequencies --    109.2194               141.3243               206.9200
 Red. masses --      1.0292                 3.6663                 1.0610
 Frc consts  --      0.0072                 0.0431                 0.0268
 IR Inten    --      4.1807                 4.9308                 0.9254

                      4                      5                      6
                      A                      A                      A
 Frequencies --    240.7980               252.7215               258.1678
 Red. masses --      1.0298                 2.4461                 1.2981
 Frc consts  --      0.0352                 0.0920                 0.0510
 IR Inten    --     29.0096                 2.9972                87.3082

                      7                      8                      9
                      A                      A                      A
 Frequencies --    328.1161               353.2250               402.1434
 Red. masses --      2.3162                 2.5977                 2.1825
 Frc consts  --      0.1469                 0.1910                 0.2080
 IR Inten    --      8.0024                 2.2337                 3.1253

                     10                     11                     12
                      A                      A                      A
 Frequencies --    452.2221               498.9845               601.4172
 Red. masses --      2.4935                 2.4121                 2.3972
 Frc consts  --      0.3004                 0.3539                 0.5109
 IR Inten    --      9.4313                 1.5204                28.1021

                     13                     14                     15
                      A                      A                      A
 Frequencies --    762.0479               825.1127               913.5871
 Red. masses --      4.8710                 3.0428                 1.6977
 Frc consts  --      1.6666                 1.2205                 0.8348
 IR Inten    --      5.2798                16.2187                 0.7061

                     16                     17                     18
                      A                      A                      A
 Frequencies --    932.7689               956.2792               982.0867
 Red. masses --      7.5539                 1.3311                 1.7239
 Frc consts  --      3.8723                 0.7172                 0.9796
 IR Inten    --      6.0402                 0.4090                 0.9922

                     19                     20                     21
                      A                      A                      A
 Frequencies --   1036.1685              1152.8553              1261.4030
 Red. masses --      1.3968                 1.9549                 3.0957
 Frc consts  --      0.8836                 1.5308                 2.9021
 IR Inten    --      2.0302                30.6054                11.1958

                     22                     23                     24
                      A                      A                      A
 Frequencies --   1274.9492              1364.9961              1394.6598
 Red. masses --      2.8707                 1.1112                 1.2560
 Frc consts  --      2.7493                 1.2199                 1.4394
 IR Inten    --     17.6072                53.0607                11.2267

                     25                     26                     27
                      A                      A                      A
 Frequencies --   1411.1307              1460.2112              1477.8673
 Red. masses --      1.2466                 1.1646                 1.0507
 Frc consts  --      1.4626                 1.4631                 1.3520
 IR Inten    --     10.5994                 4.2231                 2.1078

                     28                     29                     30
                      A                      A                      A
 Frequencies --   1488.4401              1494.0838              1512.1049
 Red. masses --      1.0477                 1.0603                 1.0597
 Frc consts  --      1.3676                 1.3945                 1.4275
 IR Inten    --      0.5202                 3.5437                 6.1760

                     31                     32                     33
                      A                      A                      A
 Frequencies --   3037.6502              3042.2023              3102.6808
 Red. masses --      1.0341                 1.0353                 1.1016
 Frc consts  --      5.6218                 5.6452                 6.2484
 IR Inten    --     14.6327                14.6762                 7.4465

                     34                     35                     36
                      A                      A                      A
 Frequencies --   3109.4591              3113.6103              3122.9679
 Red. masses --      1.1023                 1.1022                 1.1015
 Frc consts  --      6.2795                 6.2957                 6.3293
 IR Inten    --     24.3019                19.8272                13.4980

                     37                     38                     39
                      A                      A                      A
 Frequencies --   3136.1293              3243.2977              3753.6479
 Red. masses --      1.0506                 1.1191                 1.0685
 Frc consts  --      6.0880                 6.9356                 8.8705
 IR Inten    --     10.7263                 8.9478                28.4120

 - Thermochemistry -
 -------------------
 Temperature   298.150 Kelvin.  Pressure   1.00000 Atm.
 Atom     1 has atomic number  6 and mass  12.00000

 Molecular mass:    89.06025 amu.
 Principal axes and moments of inertia in atomic units:
                           1         2         3
     Eigenvalues --   393.13318 634.16028 649.63107
           X            0.99854  -0.01773  -0.05095
           Y            0.00544   0.97272  -0.23191
           Z            0.05367   0.23129   0.97140
 This molecule is an asymmetric top.
 Rotational symmetry number  1.
 Rotational temperatures (Kelvin)      0.22032     0.13658     0.13333
 Rotational constants (GHZ):           4.59066     2.84588     2.77810
 Zero-point vibrational energy     324233.8 (Joules/Mol)
                                   77.49374 (Kcal/Mol)
 Warning -- explicit consideration of  12 degrees of freedom as
           vibrations may cause significant error
 Vibrational temperatures:    157.14   203.33   297.71   346.45   363.61
          (Kelvin)            371.45   472.09   508.21   578.59   650.65
                              717.93   865.31  1096.42  1187.15  1314.45
                             1342.05  1375.87  1413.00  1490.82  1658.70
                             1814.88  1834.37  1963.92  2006.60  2030.30
                             2100.92  2126.32  2141.53  2149.65  2175.58
                             4370.50  4377.05  4464.07  4473.82  4479.79
                             4493.25  4512.19  4666.38  5400.66

 Zero-point correction=                           0.123494 (Hartree/Particle)
 Thermal correction to Energy=                    0.131877
 Thermal correction to Enthalpy=                  0.132822
 Thermal correction to Gibbs Free Energy=         0.091420
 Sum of electronic and zero-point Energies=           -308.132735
 Sum of electronic and thermal Energies=              -308.124352
 Sum of electronic and thermal Enthalpies=            -308.123408
 Sum of electronic and thermal Free Energies=         -308.164809

                     E (Thermal)             CV                S
                      KCal/Mol        Cal/Mol-Kelvin    Cal/Mol-Kelvin
 Total                   82.754             29.939             87.137
 Electronic               0.000              0.000              1.377
 Translational            0.889              2.981             39.373
 Rotational               0.889              2.981             26.585
 Vibrational             80.977             23.977             19.802
 Vibration     1          0.606              1.942              3.283
 Vibration     2          0.615              1.912              2.786
 Vibration     3          0.641              1.830              2.071
 Vibration     4          0.658              1.778              1.797
 Vibration     5          0.664              1.758              1.712
 Vibration     6          0.667              1.749              1.674
 Vibration     7          0.711              1.619              1.269
 Vibration     8          0.729              1.569              1.152
 Vibration     9          0.768              1.465              0.955
 Vibration    10          0.811              1.356              0.789
 Vibration    11          0.854              1.252              0.661
 Vibration    12          0.960              1.029              0.447

 Optimization completed.
    -- Stationary point found.
 Normal termination of Gaussian 16 at Mon Apr 11 20:17:42 2022.
