 Gaussian 16, Revision C.01,
 Gaussian 16:  ES64L-G16RevC.01  3-Jul-2019

 ----------------------------------------------------------------------
 #p B3LYP/cc-PVTZ scf(verytight, maxcycles=1000) opt(calcfc, maxcyc=100
 0) freq(hpmodes) int(grid=ultrafine)
 ----------------------------------------------------------------------

 ------
 Mol_02
 ------
 Symbolic Z-matrix:
 Charge =  0 Multiplicity = 2

 SCF Done:  E(UB3LYP) =  -308.283811145     A.U. after   15 cycles
 SCF Done:  E(UB3LYP) =  -308.291642969     A.U. after   13 cycles
 SCF Done:  E(UB3LYP) =  -308.292114800     A.U. after   12 cycles
 SCF Done:  E(UB3LYP) =  -308.292149383     A.U. after   11 cycles
 SCF Done:  E(UB3LYP) =  -308.292150711     A.U. after    7 cycles
 Optimization completed.
    -- Stationary point found.
 Normal termination of Gaussian 16 at Mon Apr 11 19:43:28 2022.

 -------------------------------------------------------------------
 #P Geom=AllCheck Guess=TCheck SCRF=Check GenChk UB3LYP/CC-pVTZ Freq
 -------------------------------------------------------------------

 Structure from the checkpoint file:  "Mol_02.chk"
 ------
 Mol_02
 ------
 Charge =  0 Multiplicity = 2

                         Standard orientation:
 ---------------------------------------------------------------------
 Center     Atomic      Atomic             Coordinates (Angstroms)
 Number     Number       Type             X           Y           Z
 ---------------------------------------------------------------------
      1          6           0       -0.667957    0.670834    1.265796
      2          6           0        0.113820    0.350403   -0.000000
      3          6           0        1.503478    0.968774    0.000000
      4          6           0       -0.667957    0.670834   -1.265796
      5          1           0       -0.887045    1.738171    1.304642
      6          1           0       -0.093255    0.405232    2.153117
      7          1           0       -1.607746    0.122322    1.280426
      8          1           0        1.423454    2.055754    0.000000
      9          1           0        2.062996    0.666024   -0.884767
     10          1           0        2.062996    0.666024    0.884767
     11          8           0        0.410249   -1.118607    0.000000
     12          1           0       -0.093255    0.405232   -2.153117
     13          1           0       -0.887045    1.738171   -1.304642
     14          1           0       -1.607746    0.122322   -1.280426
     15          8           0       -0.667957   -1.866931    0.000000
 ---------------------------------------------------------------------

 SCF Done:  E(UB3LYP) =  -308.292150711     A.U. after    1 cycles

 The electronic state is 2-A".
 Alpha  occ. eigenvalues --  -19.23800 -19.18981 -10.25272 -10.17945 -10.17565
 Alpha  occ. eigenvalues --  -10.17564  -1.18464  -0.88773  -0.78458  -0.71021
 Alpha  occ. eigenvalues --   -0.71011  -0.57841  -0.50907  -0.50283  -0.48940
 Alpha  occ. eigenvalues --   -0.44944  -0.44115  -0.41194  -0.40032  -0.39872
 Alpha  occ. eigenvalues --   -0.38434  -0.36030  -0.35553  -0.27588  -0.27401
 Alpha virt. eigenvalues --    0.02647   0.05626   0.07319   0.07665   0.09189
 Alpha virt. eigenvalues --    0.09524   0.11935   0.13153   0.13439   0.13716
 Alpha virt. eigenvalues --    0.15564   0.15871   0.18257   0.18624   0.23801

  Beta  occ. eigenvalues --  -19.22777 -19.17066 -10.25308 -10.17945 -10.17543
  Beta  occ. eigenvalues --  -10.17543  -1.15753  -0.86763  -0.76496  -0.70926
  Beta  occ. eigenvalues --   -0.70902  -0.56965  -0.50363  -0.48190  -0.47237
  Beta  occ. eigenvalues --   -0.43715  -0.42459  -0.40877  -0.39799  -0.38467
  Beta  occ. eigenvalues --   -0.38137  -0.35418  -0.34543  -0.25765
  Beta virt. eigenvalues --   -0.10493   0.02683   0.05898   0.07460   0.07730
  Beta virt. eigenvalues --    0.09206   0.09601   0.12586   0.13213   0.13498
  Beta virt. eigenvalues --    0.13744   0.15888   0.16404   0.18472   0.18948

 Mulliken charges and spin densities:
               1          2
     1  C   -0.295800   0.011595
     2  C    0.233552  -0.007767
     3  C   -0.291421  -0.001318
     4  C   -0.295800   0.011595
     5  H    0.092216  -0.001768
     6  H    0.100868  -0.000480
     7  H    0.114155  -0.001022
     8  H    0.093967  -0.001307
     9  H    0.102366   0.000086
    10  H    0.102366   0.000086
    11  O   -0.079402   0.305222
    12  H    0.100868  -0.000480
    13  H    0.092216  -0.001768
    14  H    0.114155  -0.001022
    15  O   -0.184305   0.688348
 Sum of Mulliken charges =  -0.00000   1.00000

 Dipole moment (field-independent basis, Debye):
    X=              0.3752    Y=              2.8832    Z=             -0.0000  Tot=              2.9075
 Quadrupole moment (field-independent basis, Debye-Ang):
   XX=            -37.5987   YY=            -41.5062   ZZ=            -36.5085
   XY=             -0.5031   XZ=             -0.0000   YZ=              0.0000

  Exact polarizability:      57.913       5.108      60.203      -0.000      -0.000      54.831
 Approx polarizability:      82.383       8.111      86.466      -0.000       0.000      72.283

                      1                      2                      3
                     A"                     A"                     A"
 Frequencies --    123.2015               180.1497               232.4116
 Red. masses --      6.0585                 1.0381                 1.0465
 Frc consts  --      0.0542                 0.0198                 0.0333
 IR Inten    --      0.3547                 0.0397                 0.0208

                      4                      5                      6
                     A'                     A'                     A"
 Frequencies --    243.0958               269.2671               331.3690
 Red. masses --      1.0337                 3.3674                 2.6076
 Frc consts  --      0.0360                 0.1439                 0.1687
 IR Inten    --      0.1430                 2.0800                 1.2878

                      7                      8                      9
                     A'                     A'                     A"
 Frequencies --    360.0768               402.8449               437.4422
 Red. masses --      2.7478                 2.3841                 2.7532
 Frc consts  --      0.2099                 0.2280                 0.3104
 IR Inten    --      2.9185                 0.6362                 2.6233

                     10                     11                     12
                     A'                     A'                     A'
 Frequencies --    541.8098               728.8411               799.9479
 Red. masses --      3.5484                 5.6087                 3.1968
 Frc consts  --      0.6137                 1.7554                 1.2053
 IR Inten    --      7.0383                 3.6730                 4.7710

                     13                     14                     15
                     A"                     A'                     A"
 Frequencies --    929.0682               931.3197               971.7406
 Red. masses --      1.6284                 1.5521                 1.2058
 Frc consts  --      0.8282                 0.7932                 0.6708
 IR Inten    --      0.0477                 0.4266                 0.0001

                     16                     17                     18
                     A"                     A'                     A'
 Frequencies --   1041.0430              1053.5585              1169.7132
 Red. masses --      1.4314                 1.4523                 3.5918
 Frc consts  --      0.9140                 0.9498                 2.8955
 IR Inten    --      0.5560                 0.3720                20.3771

                     19                     20                     21
                     A'                     A"                     A'
 Frequencies --   1219.4434              1262.0575              1292.8167
 Red. masses --      3.3939                 2.7287                 2.9832
 Frc consts  --      2.9735                 2.5607                 2.9377
 IR Inten    --     15.3254                14.6677                18.0850

                     22                     23                     24
                     A"                     A'                     A'
 Frequencies --   1399.5582              1402.8135              1427.7105
 Red. masses --      1.2655                 1.2666                 1.2341
 Frc consts  --      1.4605                 1.4685                 1.4821
 IR Inten    --     15.5379                20.6509                 5.0647

                     25                     26                     27
                     A"                     A'                     A"
 Frequencies --   1471.6543              1489.4173              1490.9813
 Red. masses --      1.0458                 1.0460                 1.0474
 Frc consts  --      1.3345                 1.3671                 1.3718
 IR Inten    --      0.0012                 0.1672                 0.0323

                     28                     29                     30
                     A"                     A'                     A'
 Frequencies --   1497.9442              1498.9160              1522.0499
 Red. masses --      1.0521                 1.0703                 1.0547
 Frc consts  --      1.3908                 1.4168                 1.4396
 IR Inten    --      4.3740                 4.6677                11.6104

                     31                     32                     33
                     A'                     A"                     A'
 Frequencies --   3038.7158              3039.1648              3045.7611
 Red. masses --      1.0344                 1.0348                 1.0356
 Frc consts  --      5.6275                 5.6312                 5.6603
 IR Inten    --      9.8489                18.1718                 9.8359

                     34                     35                     36
                     A"                     A'                     A"
 Frequencies --   3102.2559              3104.1263              3110.2291
 Red. masses --      1.1025                 1.1022                 1.1025
 Frc consts  --      6.2513                 6.2575                 6.2838
 IR Inten    --      3.9408                 3.8737                26.4252

                     37                     38                     39
                     A'                     A"                     A'
 Frequencies --   3111.6928              3120.7871              3124.6407
 Red. masses --      1.1015                 1.1021                 1.1012
 Frc consts  --      6.2837                 6.3241                 6.3347
 IR Inten    --     36.1780                 3.2882                17.0169

 - Thermochemistry -
 -------------------
 Temperature   298.150 Kelvin.  Pressure   1.00000 Atm.
 Atom     1 has atomic number  6 and mass  12.00000

 Molecular mass:    89.06025 amu.
 Principal axes and moments of inertia in atomic units:
                           1         2         3
     Eigenvalues --   401.55765 625.78771 626.59016
           X            0.37678   0.92630   0.00000
           Y            0.92630  -0.37678   0.00000
           Z            0.00000   0.00000   1.00000
 This molecule is an asymmetric top.
 Rotational symmetry number  1.
 Rotational temperatures (Kelvin)      0.21569     0.13841     0.13823
 Rotational constants (GHZ):           4.49435     2.88395     2.88026
 Zero-point vibrational energy     332081.2 (Joules/Mol)
                                   79.36931 (Kcal/Mol)
 Warning -- explicit consideration of  10 degrees of freedom as
           vibrations may cause significant error
 Vibrational temperatures:    177.26   259.20   334.39   349.76   387.42
          (Kelvin)            476.77   518.07   579.60   629.38   779.54
                             1048.64  1150.95  1336.72  1339.96  1398.12
                             1497.83  1515.84  1682.96  1754.51  1815.82
                             1860.07  2013.65  2018.34  2054.16  2117.38
                             2142.94  2145.19  2155.21  2156.61  2189.89
                             4372.03  4372.68  4382.17  4463.45  4466.15
                             4474.93  4477.03  4490.12  4495.66

 Zero-point correction=                           0.126483 (Hartree/Particle)
 Thermal correction to Energy=                    0.134065
 Thermal correction to Enthalpy=                  0.135010
 Thermal correction to Gibbs Free Energy=         0.095144
 Sum of electronic and zero-point Energies=           -308.165668
 Sum of electronic and thermal Energies=              -308.158085
 Sum of electronic and thermal Enthalpies=            -308.157141
 Sum of electronic and thermal Free Energies=         -308.197007

                     E (Thermal)             CV                S
                      KCal/Mol        Cal/Mol-Kelvin    Cal/Mol-Kelvin
 Total                   84.127             27.146             83.905
 Electronic               0.000              0.000              1.377
 Translational            0.889              2.981             39.373
 Rotational               0.889              2.981             26.557
 Vibrational             82.350             21.184             16.598
 Vibration     1          0.610              1.930              3.050
 Vibration     2          0.629              1.867              2.327
 Vibration     3          0.653              1.791              1.860
 Vibration     4          0.659              1.774              1.780
 Vibration     5          0.674              1.730              1.601
 Vibration     6          0.714              1.613              1.253
 Vibration     7          0.735              1.555              1.122
 Vibration     8          0.768              1.464              0.952
 Vibration     9          0.798              1.389              0.835
 Vibration    10          0.897              1.158              0.561

 Optimization completed.
    -- Stationary point found.
 Normal termination of Gaussian 16 at Mon Apr 11 19:49:21 2022.
