 Gaussian 16, Revision B.01,
 Gaussian 16:  ES64L-G16RevB.01 20-Dec-2017

 ---------------------------------------------------
 # opt=(calcfc,ts,noeigentest) freq ub3lyp cc-pvtz+d
 ---------------------------------------------------

 -----------------------------------------
 RtertbO2-OOH-elim-concerted-TS2-b3lyp-c-A
 -----------------------------------------
 Symbolic Z-matrix:
 Charge =  0 Multiplicity = 2

 SCF Done:  E(UB3LYP) =  -308.248647268     A.U. after   17 cycles
 SCF Done:  E(UB3LYP) =  -308.247982963     A.U. after   16 cycles
 SCF Done:  E(UB3LYP) =  -308.248010617     A.U. after   13 cycles
 SCF Done:  E(UB3LYP) =  -308.248052957     A.U. after   13 cycles
 SCF Done:  E(UB3LYP) =  -308.248053218     A.U. after   11 cycles
 SCF Done:  E(UB3LYP) =  -308.248052619     A.U. after   10 cycles
 SCF Done:  E(UB3LYP) =  -308.248050823     A.U. after   11 cycles
 SCF Done:  E(UB3LYP) =  -308.248053205     A.U. after   11 cycles
 SCF Done:  E(UB3LYP) =  -308.248053218     A.U. after   10 cycles
 SCF Done:  E(UB3LYP) =  -308.247199443     A.U. after   15 cycles
 SCF Done:  E(UB3LYP) =  -308.247467913     A.U. after   16 cycles
 SCF Done:  E(UB3LYP) =  -308.247878627     A.U. after   15 cycles
 SCF Done:  E(UB3LYP) =  -308.246892391     A.U. after   15 cycles
 SCF Done:  E(UB3LYP) =  -308.247892356     A.U. after   15 cycles
 SCF Done:  E(UB3LYP) =  -308.248029283     A.U. after   14 cycles
 SCF Done:  E(UB3LYP) =  -308.248053128     A.U. after   13 cycles
 SCF Done:  E(UB3LYP) =  -308.248053284     A.U. after   11 cycles
 SCF Done:  E(UB3LYP) =  -308.248053261     A.U. after    9 cycles
 SCF Done:  E(UB3LYP) =  -308.248053290     A.U. after    7 cycles
 Optimization completed.
    -- Stationary point found.
 Normal termination of Gaussian 16 at Tue Mar 29 19:36:19 2022.

 ---------------------------------------------------------------------
 #N Geom=AllCheck Guess=TCheck SCRF=Check GenChk UB3LYP/CC-pVTZ+d Freq
 ---------------------------------------------------------------------

 Structure from the checkpoint file:  "RtertbO2-OOH-elim-concerted-TS2-b3lyp-c-A.chk"
 -----------------------------------------
 RtertbO2-OOH-elim-concerted-TS2-b3lyp-c-A
 -----------------------------------------
 Charge =  0 Multiplicity = 2

                         Standard orientation:
 ---------------------------------------------------------------------
 Center     Atomic      Atomic             Coordinates (Angstroms)
 Number     Number       Type             X           Y           Z
 ---------------------------------------------------------------------
      1          6           0        0.721059   -0.000018    0.227831
      2          6           0        0.072724   -0.000113    1.458531
      3          1           0       -1.179341   -0.000070    0.970425
      4          1           0        0.082107   -0.915377    2.042335
      5          1           0        0.082110    0.915059    2.042482
      6          6           0        1.209909    1.274063   -0.387021
      7          1           0        2.276798    1.395786   -0.167934
      8          1           0        1.100321    1.262699   -1.471143
      9          1           0        0.686663    2.141889    0.010713
     10          6           0        1.209909   -1.274006   -0.387214
     11          1           0        0.686638   -2.141888    0.010365
     12          1           0        1.100352   -1.262464   -1.471336
     13          1           0        2.276790   -1.395780   -0.168114
     14          8           0       -1.246798    0.000084   -0.950567
     15          8           0       -2.052458   -0.000011    0.041747
 ---------------------------------------------------------------------

 SCF Done:  E(UB3LYP) =  -308.248053290     A.U. after    1 cycles

 The electronic state is 2-A.
 Alpha  occ. eigenvalues --  -19.21177 -19.19961 -10.23055 -10.18106 -10.18106
 Alpha  occ. eigenvalues --  -10.16664  -1.18672  -0.83299  -0.79950  -0.71265
 Alpha  occ. eigenvalues --   -0.70683  -0.54607  -0.52709  -0.48567  -0.47141
 Alpha  occ. eigenvalues --   -0.46626  -0.45942  -0.43755  -0.40413  -0.38734
 Alpha  occ. eigenvalues --   -0.38190  -0.36459  -0.30920  -0.26466  -0.24865
 Alpha virt. eigenvalues --   -0.03974   0.02954   0.07092   0.07190   0.09085
 Alpha virt. eigenvalues --    0.09124   0.10016   0.13193   0.13233   0.13853
 Alpha virt. eigenvalues --    0.16175   0.18430   0.20267   0.21499   0.23212

  Beta  occ. eigenvalues --  -19.19781 -19.18202 -10.23135 -10.18099 -10.18099
  Beta  occ. eigenvalues --  -10.16650  -1.15604  -0.83377  -0.75770  -0.71267
  Beta  occ. eigenvalues --   -0.70398  -0.54664  -0.51760  -0.47057  -0.46566
  Beta  occ. eigenvalues --   -0.44772  -0.43528  -0.40925  -0.38993  -0.38556
  Beta  occ. eigenvalues --   -0.38179  -0.36460  -0.30068  -0.23626
  Beta virt. eigenvalues --   -0.09028  -0.03812   0.02974   0.07147   0.07235
  Beta virt. eigenvalues --    0.09143   0.09166   0.10031   0.13185   0.13310
  Beta virt. eigenvalues --    0.13891   0.16913   0.18680   0.20978   0.21631

 Mulliken charges and spin densities:
               1          2
     1  C    0.158413  -0.053130
     2  C   -0.393115   0.008275
     3  H    0.208461  -0.015193
     4  H    0.107900  -0.000297
     5  H    0.107900  -0.000297
     6  C   -0.267133   0.004165
     7  H    0.103307  -0.002611
     8  H    0.109910  -0.000633
     9  H    0.102528  -0.000612
    10  C   -0.267134   0.004165
    11  H    0.102529  -0.000612
    12  H    0.109909  -0.000633
    13  H    0.103308  -0.002611
    14  O   -0.174088   0.602193
    15  O   -0.112694   0.457830
 Sum of Mulliken charges =  -0.00000   1.00000

 Dipole moment (field-independent basis, Debye):
    X=              2.6671    Y=             -0.0001    Z=              0.9876  Tot=              2.8441
 Quadrupole moment (field-independent basis, Debye-Ang):
   XX=            -41.2346   YY=            -35.9367   ZZ=            -37.9286
   XY=              0.0002   XZ=             -2.3890   YZ=              0.0002

  Exact polarizability:  76.123   0.000  55.078  -2.536  -0.001  62.920
 Approx polarizability: 130.907   0.000  72.835  -3.236  -0.002 100.428

 ******    1 imaginary frequencies (negative Signs) ******

                      1                      2                      3
                      A                      A                      A
 Frequencies --  -1066.4599               129.5392               165.2107
 Red. masses --      1.2883                 3.6293                 1.5234
 Frc consts  --      0.8633                 0.0359                 0.0245
 IR Inten    --    292.6701                 0.0383                 0.4555

                      4                      5                      6
                      A                      A                      A
 Frequencies --    194.0853               201.8582               204.6439
 Red. masses --      2.0674                 1.7702                 1.6657
 Frc consts  --      0.0459                 0.0425                 0.0411
 IR Inten    --      2.1264                10.5776                 6.5442

                      7                      8                      9
                      A                      A                      A
 Frequencies --    366.7876               432.4375               433.2686
 Red. masses --      2.3909                 2.9108                 2.0631
 Frc consts  --      0.1895                 0.3207                 0.2282
 IR Inten    --     20.0180                37.1285                 1.3485

                     10                     11                     12
                      A                      A                      A
 Frequencies --    534.7269               633.6676               652.0179
 Red. masses --      3.0349                 5.8582                 1.0787
 Frc consts  --      0.5113                 1.3859                 0.2702
 IR Inten    --      6.2600                 5.3747                 0.6422

                     13                     14                     15
                      A                      A                      A
 Frequencies --    816.9233               939.5041               989.8160
 Red. masses --      3.4378                 1.4216                 1.2107
 Frc consts  --      1.3517                 0.7393                 0.6988
 IR Inten    --      6.9406                 1.2909                 0.4372

                     16                     17                     18
                      A                      A                      A
 Frequencies --   1022.0894              1024.2148              1072.2748
 Red. masses --      1.4747                 1.2169                 1.5235
 Frc consts  --      0.9076                 0.7521                 1.0321
 IR Inten    --      0.0439                10.4496                 3.4377

                     19                     20                     21
                      A                      A                      A
 Frequencies --   1100.5524              1286.0098              1305.2299
 Red. masses --      1.6264                 1.3198                 8.4814
 Frc consts  --      1.1606                 1.2860                 8.5132
 IR Inten    --     56.5701                23.3471               176.1526

                     22                     23                     24
                      A                      A                      A
 Frequencies --   1326.8529              1409.7241              1410.8391
 Red. masses --      1.6464                 1.3667                 1.2153
 Frc consts  --      1.7078                 1.6002                 1.4253
 IR Inten    --      0.0010                15.1996                 6.9668

                     25                     26                     27
                      A                      A                      A
 Frequencies --   1425.9692              1468.9390              1480.3136
 Red. masses --      1.3674                 1.0508                 1.0587
 Frc consts  --      1.6382                 1.3359                 1.3669
 IR Inten    --     23.5936                 0.8336                 2.1436

                     28                     29                     30
                      A                      A                      A
 Frequencies --   1484.5351              1499.1572              1569.9244
 Red. masses --      1.0618                 1.0696                 1.5115
 Frc consts  --      1.3788                 1.4163                 2.1949
 IR Inten    --     11.8346                 5.7358                31.9724

                     31                     32                     33
                      A                      A                      A
 Frequencies --   1598.6130              3003.2904              3008.1821
 Red. masses --      1.5324                 1.0494                 1.0501
 Frc consts  --      2.3073                 5.5768                 5.5987
 IR Inten    --     39.6823                 6.3925                35.7326

                     34                     35                     36
                      A                      A                      A
 Frequencies --   3073.4676              3076.5548              3091.6281
 Red. masses --      1.0830                 1.0822                 1.0555
 Frc consts  --      6.0272                 6.0350                 5.9442
 IR Inten    --      7.1834                15.1007                 2.4923

                     37                     38                     39
                      A                      A                      A
 Frequencies --   3114.7785              3117.1111              3168.6948
 Red. masses --      1.1029                 1.1027                 1.1128
 Frc consts  --      6.3046                 6.3129                 6.5832
 IR Inten    --     10.8555                20.0976                11.3787

 - Thermochemistry -
 -------------------
 Temperature   298.150 Kelvin.  Pressure   1.00000 Atm.
 Atom     1 has atomic number  6 and mass  12.00000

 Molecular mass:    89.06025 amu.
 Principal axes and moments of inertia in atomic units:
                           1         2         3
     Eigenvalues --   409.83784 734.36969 736.88094
           X            0.99871  -0.05083  -0.00002
           Y           -0.00000  -0.00041   1.00000
           Z            0.05083   0.99871   0.00041
 This molecule is an asymmetric top.
 Rotational symmetry number  1.
 Rotational temperatures (Kelvin)      0.21134     0.11794     0.11754
 Rotational constants (GHZ):           4.40355     2.45754     2.44916
    1 imaginary frequencies ignored.
 Zero-point vibrational energy     316014.1 (Joules/Mol)
                                   75.52918 (Kcal/Mol)
 Warning -- explicit consideration of   9 degrees of freedom as
           vibrations may cause significant error
 Vibrational temperatures:    186.38   237.70   279.25   290.43   294.44
          (Kelvin)            527.73   622.18   623.38   769.35   911.71
                              938.11  1175.37  1351.74  1424.12  1470.56
                             1473.62  1542.76  1583.45  1850.28  1877.93
                             1909.05  2028.28  2029.88  2051.65  2113.48
                             2129.84  2135.91  2156.95  2258.77  2300.05
                             4321.06  4328.10  4422.03  4426.48  4448.16
                             4481.47  4484.83  4559.05

 Zero-point correction=                           0.120363 (Hartree/Particle)
 Thermal correction to Energy=                    0.127911
 Thermal correction to Enthalpy=                  0.128855
 Thermal correction to Gibbs Free Energy=         0.088693
 Sum of electronic and zero-point Energies=           -308.127690
 Sum of electronic and thermal Energies=              -308.120143
 Sum of electronic and thermal Enthalpies=            -308.119198
 Sum of electronic and thermal Free Energies=         -308.159360

                     E (Thermal)             CV                S
                      KCal/Mol        Cal/Mol-Kelvin    Cal/Mol-Kelvin
 Total                   80.265             26.602             84.528
 Electronic               0.000              0.000              1.377
 Translational            0.889              2.981             39.373
 Rotational               0.889              2.981             26.897
 Vibrational             78.488             20.641             16.881
 Vibration     1          0.612              1.924              2.953
 Vibration     2          0.624              1.885              2.489
 Vibration     3          0.635              1.848              2.188
 Vibration     4          0.639              1.837              2.116
 Vibration     5          0.640              1.833              2.091
 Vibration     6          0.740              1.541              1.093
 Vibration     7          0.793              1.400              0.851
 Vibration     8          0.794              1.398              0.848
 Vibration     9          0.890              1.173              0.577

 Optimization completed.
    -- Stationary point found.
 Normal termination of Gaussian 16 at Tue Mar 29 19:40:53 2022.
