 Gaussian 16, Revision B.01,
 Gaussian 16:  ES64L-G16RevB.01 20-Dec-2017

 ---------------------------------------------------
 # opt=(calcfc,ts,noeigentest) freq ub3lyp cc-pvtz+d
 ---------------------------------------------------

 ------------------------------
 QOOHtertb-OOH-Elim-TS4-b3lyp-c
 ------------------------------
 Symbolic Z-matrix:
 Charge =  0 Multiplicity = 2

 SCF Done:  E(UB3LYP) =  -308.238925797     A.U. after   19 cycles
 SCF Done:  E(UB3LYP) =  -308.238599381     A.U. after   16 cycles
 SCF Done:  E(UB3LYP) =  -308.238596181     A.U. after   11 cycles
 SCF Done:  E(UB3LYP) =  -308.238596230     A.U. after    9 cycles
 Optimization completed.
    -- Stationary point found.
 Normal termination of Gaussian 16 at Sat Apr  2 22:27:53 2022.

 ---------------------------------------------------------------------
 #N Geom=AllCheck Guess=TCheck SCRF=Check GenChk UB3LYP/CC-pVTZ+d Freq
 ---------------------------------------------------------------------

 Structure from the checkpoint file:  "QOOHtertb-OOH-Elim-TS4-b3lyp-c.chk"
 ------------------------------
 QOOHtertb-OOH-Elim-TS4-b3lyp-c
 ------------------------------
 Charge =  0 Multiplicity = 2

                         Standard orientation:
 ---------------------------------------------------------------------
 Center     Atomic      Atomic             Coordinates (Angstroms)
 Number     Number       Type             X           Y           Z
 ---------------------------------------------------------------------
      1          6           0        0.659424    0.111180    0.154318
      2          6           0        0.629958   -0.166234    1.513604
      3          1           0       -2.220744    0.547831   -0.683078
      4          1           0        1.001960   -1.106607    1.894172
      5          1           0        0.111527    0.483571    2.204284
      6          6           0        0.372785    1.513754   -0.313028
      7          1           0        1.269106    2.130950   -0.215509
      8          1           0        0.080859    1.524197   -1.363802
      9          1           0       -0.413588    1.976165    0.282474
     10          6           0        1.553931   -0.709594   -0.737671
     11          1           0        1.620258   -1.738368   -0.387526
     12          1           0        1.179707   -0.715055   -1.760570
     13          1           0        2.561384   -0.286405   -0.747566
     14          8           0       -0.945723   -0.789945   -0.372351
     15          8           0       -2.115159   -0.123919    0.006574
 ---------------------------------------------------------------------

 SCF Done:  E(UB3LYP) =  -308.238596230     A.U. after    1 cycles

 The electronic state is 2-A.
 Alpha  occ. eigenvalues --  -19.18452 -19.17341 -10.22494 -10.18168 -10.17850
 Alpha  occ. eigenvalues --  -10.17203  -1.11555  -0.86164  -0.80863  -0.70730
 Alpha  occ. eigenvalues --   -0.69819  -0.54964  -0.51770  -0.46927  -0.46274
 Alpha  occ. eigenvalues --   -0.45707  -0.43088  -0.40512  -0.39375  -0.38614
 Alpha  occ. eigenvalues --   -0.37694  -0.35730  -0.29105  -0.27287  -0.22309
 Alpha virt. eigenvalues --    0.00518   0.02570   0.04742   0.07721   0.08782
 Alpha virt. eigenvalues --    0.09169   0.09555   0.10526   0.11369   0.13694
 Alpha virt. eigenvalues --    0.14474   0.15281   0.20658   0.21200   0.26196

  Beta  occ. eigenvalues --  -19.18229 -19.15938 -10.22716 -10.17831 -10.17262
  Beta  occ. eigenvalues --  -10.17184  -1.10142  -0.84727  -0.79563  -0.70689
  Beta  occ. eigenvalues --   -0.68356  -0.54516  -0.51287  -0.46550  -0.45790
  Beta  occ. eigenvalues --   -0.44813  -0.42456  -0.39502  -0.38462  -0.37592
  Beta  occ. eigenvalues --   -0.37415  -0.35665  -0.26205  -0.25343
  Beta virt. eigenvalues --   -0.09913   0.01810   0.02834   0.05204   0.07996
  Beta virt. eigenvalues --    0.08968   0.09463   0.09651   0.10929   0.11541
  Beta virt. eigenvalues --    0.13736   0.14463   0.15345   0.20763   0.21205

 Mulliken charges and spin densities:
               1          2
     1  C    0.206843  -0.125875
     2  C   -0.241484   0.646025
     3  H    0.222037  -0.002215
     4  H    0.110052  -0.018472
     5  H    0.112821  -0.018769
     6  C   -0.320493   0.007522
     7  H    0.110806  -0.005385
     8  H    0.100216  -0.000824
     9  H    0.102096  -0.001059
    10  C   -0.280084   0.005708
    11  H    0.102447  -0.000230
    12  H    0.099494  -0.002076
    13  H    0.098430  -0.004524
    14  O   -0.228355   0.450496
    15  O   -0.194827   0.069679
 Sum of Mulliken charges =  -0.00000   1.00000

 Dipole moment (field-independent basis, Debye):
    X=              1.3469    Y=              1.9556    Z=             -0.6353  Tot=              2.4581
 Quadrupole moment (field-independent basis, Debye-Ang):
   XX=            -38.2769   YY=            -37.4073   ZZ=            -36.3799
   XY=             -4.0814   XZ=              1.6862   YZ=             -1.3277

  Exact polarizability:  78.111  -0.695  57.419   7.383  -0.342  65.511
 Approx polarizability: 117.735   3.807  81.153  17.916   3.755  98.895

 ******    1 imaginary frequencies (negative Signs) ******

                      1                      2                      3
                      A                      A                      A
 Frequencies --   -487.7669                88.9942               151.7565
 Red. masses --      8.0332                 4.2750                 1.1432
 Frc consts  --      1.1261                 0.0199                 0.0155
 IR Inten    --     41.7917                 6.8724                 0.1528

                      4                      5                      6
                      A                      A                      A
 Frequencies --    187.8326               203.4678               238.7849
 Red. masses --      2.8003                 1.0560                 2.9375
 Frc consts  --      0.0582                 0.0258                 0.0987
 IR Inten    --      0.8195                 1.2307                 6.9487

                      7                      8                      9
                      A                      A                      A
 Frequencies --    313.5023               383.0518               393.9403
 Red. masses --      3.3021                 1.8494                 2.7481
 Frc consts  --      0.1912                 0.1599                 0.2513
 IR Inten    --      3.4788                 9.1504                 6.9919

                     10                     11                     12
                      A                      A                      A
 Frequencies --    436.9883               445.0092               514.1904
 Red. masses --      1.3417                 2.5401                 1.0269
 Frc consts  --      0.1510                 0.2964                 0.1600
 IR Inten    --     67.7058                 3.2007                 0.7361

                     13                     14                     15
                      A                      A                      A
 Frequencies --    794.1423               798.9923               937.3273
 Red. masses --      3.5923                 1.3994                 3.8860
 Frc consts  --      1.3348                 0.5263                 2.0116
 IR Inten    --      4.6219                28.7140               120.9512

                     16                     17                     18
                      A                      A                      A
 Frequencies --    945.8456               975.7839              1020.0629
 Red. masses --      1.8075                 1.2144                 1.4278
 Frc consts  --      0.9527                 0.6813                 0.8753
 IR Inten    --     30.9140                 0.8504                 0.5750

                     19                     20                     21
                      A                      A                      A
 Frequencies --   1059.3166              1077.9920              1303.4883
 Red. masses --      1.5318                 1.6200                 2.6612
 Frc consts  --      1.0128                 1.1092                 2.6640
 IR Inten    --      0.5499                 8.7360                 4.4573

                     22                     23                     24
                      A                      A                      A
 Frequencies --   1375.2400              1388.7153              1405.2746
 Red. masses --      1.4371                 1.3082                 1.3449
 Frc consts  --      1.6013                 1.4864                 1.5649
 IR Inten    --      9.3172                49.0246                22.5342

                     25                     26                     27
                      A                      A                      A
 Frequencies --   1419.3570              1477.5224              1487.4114
 Red. masses --      1.3521                 1.0517                 1.0486
 Frc consts  --      1.6049                 1.3528                 1.3668
 IR Inten    --     12.0515                 3.3604                 0.5749

                     28                     29                     30
                      A                      A                      A
 Frequencies --   1488.9793              1508.0398              1528.5590
 Red. masses --      1.0730                 1.0588                 1.6090
 Frc consts  --      1.4016                 1.4187                 2.2149
 IR Inten    --     12.4273                13.9099                30.9958

                     31                     32                     33
                      A                      A                      A
 Frequencies --   3025.6914              3030.9291              3078.6432
 Red. masses --      1.0370                 1.0396                 1.0984
 Frc consts  --      5.5933                 5.6269                 6.1337
 IR Inten    --     14.3457                19.6529                 7.5382

                     34                     35                     36
                      A                      A                      A
 Frequencies --   3090.0985              3106.6231              3117.0108
 Red. masses --      1.0944                 1.1022                 1.1026
 Frc consts  --      6.1570                 6.2674                 6.3120
 IR Inten    --     10.3529                15.5035                15.5681

                     37                     38                     39
                      A                      A                      A
 Frequencies --   3145.0795              3238.2692              3701.7344
 Red. masses --      1.0528                 1.1177                 1.0686
 Frc consts  --      6.1359                 6.9057                 8.6270
 IR Inten    --      8.3710                 8.3425                27.5871

 - Thermochemistry -
 -------------------
 Temperature   298.150 Kelvin.  Pressure   1.00000 Atm.
 Atom     1 has atomic number  6 and mass  12.00000

 Molecular mass:    89.06025 amu.
 Principal axes and moments of inertia in atomic units:
                           1         2         3
     Eigenvalues --   402.40838 704.32143 733.06540
           X            0.99846  -0.05477  -0.00885
           Y            0.05287   0.98763  -0.14763
           Z            0.01683   0.14694   0.98900
 This molecule is an asymmetric top.
 Rotational symmetry number  1.
 Rotational temperatures (Kelvin)      0.21524     0.12297     0.11815
 Rotational constants (GHZ):           4.48485     2.56238     2.46191
    1 imaginary frequencies ignored.
 Zero-point vibrational energy     322295.8 (Joules/Mol)
                                   77.03054 (Kcal/Mol)
 Warning -- explicit consideration of  11 degrees of freedom as
           vibrations may cause significant error
 Vibrational temperatures:    128.04   218.34   270.25   292.74   343.56
          (Kelvin)            451.06   551.13   566.79   628.73   640.27
                              739.81  1142.59  1149.57  1348.60  1360.86
                             1403.94  1467.64  1524.12  1550.99  1875.43
                             1978.66  1998.05  2021.88  2042.14  2125.83
                             2140.05  2142.31  2169.73  2199.26  4353.30
                             4360.83  4429.48  4445.96  4469.74  4484.68
                             4525.07  4659.15  5325.97

 Zero-point correction=                           0.122756 (Hartree/Particle)
 Thermal correction to Energy=                    0.130873
 Thermal correction to Enthalpy=                  0.131817
 Thermal correction to Gibbs Free Energy=         0.090551
 Sum of electronic and zero-point Energies=           -308.115840
 Sum of electronic and thermal Energies=              -308.107724
 Sum of electronic and thermal Enthalpies=            -308.106779
 Sum of electronic and thermal Free Energies=         -308.148045

                     E (Thermal)             CV                S
                      KCal/Mol        Cal/Mol-Kelvin    Cal/Mol-Kelvin
 Total                   82.124             28.443             86.851
 Electronic               0.000              0.000              1.377
 Translational            0.889              2.981             39.373
 Rotational               0.889              2.981             26.832
 Vibrational             80.346             22.482             19.269
 Vibration     1          0.602              1.957              3.682
 Vibration     2          0.619              1.901              2.650
 Vibration     3          0.633              1.857              2.249
 Vibration     4          0.639              1.835              2.102
 Vibration     5          0.657              1.781              1.812
 Vibration     6          0.701              1.648              1.344
 Vibration     7          0.752              1.506              1.027
 Vibration     8          0.761              1.483              0.985
 Vibration     9          0.797              1.390              0.836
 Vibration    10          0.804              1.372              0.811
 Vibration    11          0.869              1.219              0.624

 Optimization completed.
    -- Stationary point found.
 Normal termination of Gaussian 16 at Sat Apr  2 22:32:19 2022.
