 Gaussian 16, Revision B.01,
 Gaussian 16:  ES64L-G16RevB.01 20-Dec-2017

 ---------------------------------------------------
 # opt=(calcfc,ts,noeigentest) freq ub3lyp cc-pvtz+d
 ---------------------------------------------------

 -----------------------------
 QOOHtertb-OH-Elim-TS5-b3lyp-c
 -----------------------------
 Symbolic Z-matrix:
 Charge =  0 Multiplicity = 2

 SCF Done:  E(UB3LYP) =  -308.198725999     A.U. after   21 cycles
 SCF Done:  E(UB3LYP) =  -308.217684722     A.U. after   19 cycles
 SCF Done:  E(UB3LYP) =  -308.227237100     A.U. after   18 cycles
 SCF Done:  E(UB3LYP) =  -308.236098457     A.U. after   18 cycles
 SCF Done:  E(UB3LYP) =  -308.240662022     A.U. after   20 cycles
 SCF Done:  E(UB3LYP) =  -308.241012714     A.U. after   17 cycles
 SCF Done:  E(UB3LYP) =  -308.240971290     A.U. after   15 cycles
 SCF Done:  E(UB3LYP) =  -308.241070161     A.U. after   17 cycles
 SCF Done:  E(UB3LYP) =  -308.240973115     A.U. after   16 cycles
 SCF Done:  E(UB3LYP) =  -308.241090887     A.U. after   17 cycles
 SCF Done:  E(UB3LYP) =  -308.240595945     A.U. after   18 cycles
 SCF Done:  E(UB3LYP) =  -308.240573658     A.U. after   17 cycles
 SCF Done:  E(UB3LYP) =  -308.239770235     A.U. after   20 cycles
 SCF Done:  E(UB3LYP) =  -308.240517426     A.U. after   19 cycles
 SCF Done:  E(UB3LYP) =  -308.240664665     A.U. after   17 cycles
 SCF Done:  E(UB3LYP) =  -308.240689811     A.U. after   16 cycles
 SCF Done:  E(UB3LYP) =  -308.240690368     A.U. after   12 cycles
 SCF Done:  E(UB3LYP) =  -308.240690387     A.U. after   10 cycles
 SCF Done:  E(UB3LYP) =  -308.240690470     A.U. after    9 cycles
 Optimization completed.
    -- Stationary point found.
 Normal termination of Gaussian 16 at Sat Apr  2 22:51:47 2022.

 ---------------------------------------------------------------------
 #N Geom=AllCheck Guess=TCheck SCRF=Check GenChk UB3LYP/CC-pVTZ+d Freq
 ---------------------------------------------------------------------

 Structure from the checkpoint file:  "QOOHtertb-OH-Elim-TS5-b3lyp-c.chk"
 -----------------------------
 QOOHtertb-OH-Elim-TS5-b3lyp-c
 -----------------------------
 Charge =  0 Multiplicity = 2

                         Standard orientation:
 ---------------------------------------------------------------------
 Center     Atomic      Atomic             Coordinates (Angstroms)
 Number     Number       Type             X           Y           Z
 ---------------------------------------------------------------------
      1          6           0        0.487789    0.043724    0.026149
      2          6           0        1.265037   -1.196235   -0.199899
      3          1           0       -2.492390   -0.559124    0.456318
      4          1           0        1.565088   -1.476775   -1.197744
      5          1           0        1.427753   -1.889516    0.610898
      6          6           0        0.479072    0.552137    1.459441
      7          1           0        1.414881    1.060642    1.694989
      8          1           0       -0.343744    1.252754    1.590493
      9          1           0        0.343867   -0.273327    2.158369
     10          6           0        0.681171    1.144900   -1.003846
     11          1           0        0.674859    0.729836   -2.011003
     12          1           0       -0.133241    1.863715   -0.925230
     13          1           0        1.625262    1.666943   -0.841161
     14          8           0       -0.612196   -0.797319   -0.274198
     15          8           0       -2.082897    0.092031   -0.129177
 ---------------------------------------------------------------------

 SCF Done:  E(UB3LYP) =  -308.240690470     A.U. after    1 cycles

 The electronic state is 2-A.
 Alpha  occ. eigenvalues --  -19.16641 -19.14238 -10.24607 -10.22677 -10.16783
 Alpha  occ. eigenvalues --  -10.16546  -1.04166  -0.94741  -0.77746  -0.70773
 Alpha  occ. eigenvalues --   -0.70126  -0.56056  -0.48770  -0.48287  -0.46394
 Alpha  occ. eigenvalues --   -0.43885  -0.41528  -0.40450  -0.38806  -0.36870
 Alpha  occ. eigenvalues --   -0.36556  -0.34894  -0.30382  -0.26649  -0.24377
 Alpha virt. eigenvalues --   -0.04171   0.03232   0.06442   0.07180   0.08023
 Alpha virt. eigenvalues --    0.09642   0.09850   0.10452   0.13999   0.14249
 Alpha virt. eigenvalues --    0.15536   0.16602   0.20386   0.21062   0.25305

  Beta  occ. eigenvalues --  -19.16883 -19.12841 -10.24670 -10.21670 -10.16773
  Beta  occ. eigenvalues --  -10.16539  -1.03763  -0.92029  -0.77536  -0.70103
  Beta  occ. eigenvalues --   -0.68799  -0.55604  -0.48380  -0.47851  -0.46025
  Beta  occ. eigenvalues --   -0.43091  -0.40938  -0.39961  -0.38690  -0.36826
  Beta  occ. eigenvalues --   -0.36479  -0.32702  -0.29728  -0.26059
  Beta virt. eigenvalues --   -0.11347  -0.00543   0.03416   0.06848   0.07363
  Beta virt. eigenvalues --    0.08273   0.09680   0.09926   0.10653   0.14040
  Beta virt. eigenvalues --    0.14254   0.15570   0.16638   0.20793   0.21089

 Mulliken charges and spin densities:
               1          2
     1  C    0.328998  -0.025329
     2  C   -0.201378   0.720980
     3  H    0.219642  -0.005408
     4  H    0.131976  -0.020939
     5  H    0.130106  -0.020313
     6  C   -0.314034   0.001572
     7  H    0.091276   0.000371
     8  H    0.109592   0.001741
     9  H    0.086021  -0.000090
    10  C   -0.287821   0.000792
    11  H    0.090398   0.000024
    12  H    0.112457   0.001889
    13  H    0.086443   0.000901
    14  O   -0.268132  -0.163766
    15  O   -0.315543   0.507576
 Sum of Mulliken charges =  -0.00000   1.00000

 Dipole moment (field-independent basis, Debye):
    X=              2.1069    Y=             -0.5417    Z=              1.1434  Tot=              2.4576
 Quadrupole moment (field-independent basis, Debye-Ang):
   XX=            -36.8892   YY=            -36.6633   ZZ=            -37.0320
   XY=              0.2263   XZ=             -3.3147   YZ=             -0.9050

  Exact polarizability:  82.694  -8.961  59.053  -2.660  -0.349  55.692
 Approx polarizability: 138.961 -22.035  85.010  -2.241  -0.054  73.046

 ******    1 imaginary frequencies (negative Signs) ******

                      1                      2                      3
                      A                      A                      A
 Frequencies --   -723.3235               106.4119               180.1855
 Red. masses --     13.3508                 4.2611                 1.2201
 Frc consts  --      4.1155                 0.0284                 0.0233
 IR Inten    --    137.6152                 0.9489                96.0317

                      4                      5                      6
                      A                      A                      A
 Frequencies --    192.2029               210.6768               242.7670
 Red. masses --      1.1526                 1.6873                 1.2675
 Frc consts  --      0.0251                 0.0441                 0.0440
 IR Inten    --      0.4539                 5.6303                 0.6765

                      7                      8                      9
                      A                      A                      A
 Frequencies --    335.0221               348.3646               401.7137
 Red. masses --      2.5098                 2.7737                 3.0846
 Frc consts  --      0.1660                 0.1983                 0.2933
 IR Inten    --      2.9064                 7.0620                 7.7491

                     10                     11                     12
                      A                      A                      A
 Frequencies --    411.4388               480.1318               530.8473
 Red. masses --      1.6621                 2.7301                 1.4375
 Frc consts  --      0.1658                 0.3708                 0.2387
 IR Inten    --      4.1113                 3.2157                 4.0547

                     13                     14                     15
                      A                      A                      A
 Frequencies --    754.2206               764.4269               868.1073
 Red. masses --      2.8433                 1.5320                 2.6184
 Frc consts  --      0.9529                 0.5274                 1.1626
 IR Inten    --      7.5255                27.6340                15.8034

                     16                     17                     18
                      A                      A                      A
 Frequencies --    909.8624               957.4954               983.0920
 Red. masses --      1.5626                 1.2283                 1.1807
 Frc consts  --      0.7622                 0.6635                 0.6723
 IR Inten    --      0.6691                 2.9152                60.4705

                     19                     20                     21
                      A                      A                      A
 Frequencies --   1029.0132              1036.6748              1158.7278
 Red. masses --      1.3742                 1.5815                 2.0757
 Frc consts  --      0.8573                 1.0014                 1.6420
 IR Inten    --      0.9164                10.1586                 7.7867

                     22                     23                     24
                      A                      A                      A
 Frequencies --   1265.3814              1326.8174              1400.6343
 Red. masses --      2.8605                 2.8299                 1.3215
 Frc consts  --      2.6986                 2.9352                 1.5274
 IR Inten    --     12.3309                27.4024                18.6431

                     25                     26                     27
                      A                      A                      A
 Frequencies --   1411.9795              1465.1336              1474.2970
 Red. masses --      1.2726                 1.1855                 1.0466
 Frc consts  --      1.4949                 1.4994                 1.3403
 IR Inten    --     16.4975                 9.6163                 0.7735

                     28                     29                     30
                      A                      A                      A
 Frequencies --   1490.3417              1498.6409              1510.3099
 Red. masses --      1.0473                 1.1217                 1.0523
 Frc consts  --      1.3705                 1.4843                 1.4142
 IR Inten    --      1.0295                 4.5232                 7.6045

                     31                     32                     33
                      A                      A                      A
 Frequencies --   3034.8933              3040.6053              3100.0703
 Red. masses --      1.0352                 1.0356                 1.1018
 Frc consts  --      5.6175                 5.6411                 6.2386
 IR Inten    --     19.2489                11.9267                14.1080

                     34                     35                     36
                      A                      A                      A
 Frequencies --   3105.1350              3116.1359              3120.0357
 Red. masses --      1.1014                 1.1024                 1.1010
 Frc consts  --      6.2568                 6.3070                 6.3145
 IR Inten    --     26.4251                 7.4155                13.1015

                     37                     38                     39
                      A                      A                      A
 Frequencies --   3158.1296              3273.0329              3784.3896
 Red. masses --      1.0496                 1.1216                 1.0679
 Frc consts  --      6.1676                 7.0793                 9.0111
 IR Inten    --      1.9604                 3.1036                45.6466

 - Thermochemistry -
 -------------------
 Temperature   298.150 Kelvin.  Pressure   1.00000 Atm.
 Atom     1 has atomic number  6 and mass  12.00000

 Molecular mass:    89.06025 amu.
 Principal axes and moments of inertia in atomic units:
                           1         2         3
     Eigenvalues --   428.17836 639.18325 659.14233
           X            0.99947   0.00065  -0.03250
           Y           -0.00655   0.98335  -0.18159
           Z            0.03184   0.18171   0.98284
 This molecule is an asymmetric top.
 Rotational symmetry number  1.
 Rotational temperatures (Kelvin)      0.20228     0.13551     0.13140
 Rotational constants (GHZ):           4.21493     2.82351     2.73801
    1 imaginary frequencies ignored.
 Zero-point vibrational energy     319865.6 (Joules/Mol)
                                   76.44970 (Kcal/Mol)
 Warning -- explicit consideration of  11 degrees of freedom as
           vibrations may cause significant error
 Vibrational temperatures:    153.10   259.25   276.54   303.12   349.29
          (Kelvin)            482.02   501.22   577.98   591.97   690.80
                              763.77  1085.16  1099.84  1249.01  1309.09
                             1377.62  1414.45  1480.52  1491.54  1667.15
                             1820.60  1908.99  2015.20  2031.52  2108.00
                             2121.18  2144.27  2156.21  2173.00  4366.53
                             4374.75  4460.31  4467.60  4483.42  4489.04
                             4543.84  4709.16  5444.89

 Zero-point correction=                           0.121830 (Hartree/Particle)
 Thermal correction to Energy=                    0.129906
 Thermal correction to Enthalpy=                  0.130850
 Thermal correction to Gibbs Free Energy=         0.089957
 Sum of electronic and zero-point Energies=           -308.118860
 Sum of electronic and thermal Energies=              -308.110784
 Sum of electronic and thermal Enthalpies=            -308.109840
 Sum of electronic and thermal Free Energies=         -308.150733

                     E (Thermal)             CV                S
                      KCal/Mol        Cal/Mol-Kelvin    Cal/Mol-Kelvin
 Total                   81.517             28.908             86.067
 Electronic               0.000              0.000              1.377
 Translational            0.889              2.981             39.373
 Rotational               0.889              2.981             26.692
 Vibrational             79.740             22.946             18.625
 Vibration     1          0.605              1.944              3.333
 Vibration     2          0.629              1.867              2.326
 Vibration     3          0.634              1.851              2.206
 Vibration     4          0.643              1.825              2.038
 Vibration     5          0.659              1.775              1.783
 Vibration     6          0.716              1.606              1.236
 Vibration     7          0.726              1.579              1.174
 Vibration     8          0.767              1.466              0.956
 Vibration     9          0.775              1.445              0.922
 Vibration    10          0.836              1.294              0.710
 Vibration    11          0.886              1.182              0.585

 Optimization completed.
    -- Stationary point found.
 Normal termination of Gaussian 16 at Sat Apr  2 22:56:23 2022.
