 Gaussian 16, Revision B.01,
 Gaussian 16:  ES64L-G16RevB.01 20-Dec-2017

 ---------------------------------------------------
 # opt=(calcfc,ts,noeigentest) freq ub3lyp cc-pvtz+d
 ---------------------------------------------------

 ----------------------------
 RtertbO2-T-Shift-TS3-b3lyp-c
 ----------------------------
 Symbolic Z-matrix:
 Charge =  0 Multiplicity = 2

 SCF Done:  E(UB3LYP) =  -308.214987954     A.U. after   27 cycles
 SCF Done:  E(UB3LYP) =  -308.223941311     A.U. after   23 cycles
 SCF Done:  E(UB3LYP) =  -308.229360707     A.U. after   19 cycles
 SCF Done:  E(UB3LYP) =  -308.225854330     A.U. after   15 cycles
 SCF Done:  E(UB3LYP) =  -308.224663387     A.U. after   18 cycles
 SCF Done:  E(UB3LYP) =  -308.220889441     A.U. after   20 cycles
 SCF Done:  E(UB3LYP) =  -308.216206653     A.U. after   24 cycles
 SCF Done:  E(UB3LYP) =  -308.226001653     A.U. after   24 cycles
 SCF Done:  E(UB3LYP) =  -308.226342389     A.U. after   19 cycles
 SCF Done:  E(UB3LYP) =  -308.227326698     A.U. after   20 cycles
 SCF Done:  E(UB3LYP) =  -308.228106980     A.U. after   14 cycles
 SCF Done:  E(UB3LYP) =  -308.228121121     A.U. after   14 cycles
 SCF Done:  E(UB3LYP) =  -308.227352382     A.U. after   15 cycles
 SCF Done:  E(UB3LYP) =  -308.228103873     A.U. after   15 cycles
 SCF Done:  E(UB3LYP) =  -308.228121727     A.U. after   15 cycles
 SCF Done:  E(UB3LYP) =  -308.228175324     A.U. after   14 cycles
 SCF Done:  E(UB3LYP) =  -308.228177003     A.U. after   12 cycles
 SCF Done:  E(UB3LYP) =  -308.228177511     A.U. after   11 cycles
 SCF Done:  E(UB3LYP) =  -308.228177615     A.U. after   11 cycles
 Optimization completed.
    -- Stationary point found.
 Normal termination of Gaussian 16 at Wed Mar 30 16:55:37 2022.

 ---------------------------------------------------------------------
 #N Geom=AllCheck Guess=TCheck SCRF=Check GenChk UB3LYP/CC-pVTZ+d Freq
 ---------------------------------------------------------------------

 Structure from the checkpoint file:  "RtertbO2-T-Shift-TS3-b3lyp-c.chk"
 ----------------------------
 RtertbO2-T-Shift-TS3-b3lyp-c
 ----------------------------
 Charge =  0 Multiplicity = 2

                         Standard orientation:
 ---------------------------------------------------------------------
 Center     Atomic      Atomic             Coordinates (Angstroms)
 Number     Number       Type             X           Y           Z
 ---------------------------------------------------------------------
      1          6           0        0.374528    0.007943    0.041163
      2          6           0       -0.239334   -0.489943    1.355864
      3          1           0       -1.472485   -0.247647    0.809877
      4          1           0       -0.216368   -1.563877    1.518701
      5          1           0       -0.084712    0.101532    2.251682
      6          6           0        0.584397    1.520086    0.059182
      7          1           0        1.318278    1.799473    0.816397
      8          1           0        0.945472    1.857845   -0.911837
      9          1           0       -0.352010    2.030992    0.276632
     10          6           0        1.629428   -0.748555   -0.369766
     11          1           0        1.437974   -1.819892   -0.408153
     12          1           0        1.966037   -0.419234   -1.353630
     13          1           0        2.432224   -0.560296    0.343716
     14          8           0       -0.642771   -0.355494   -0.933256
     15          8           0       -1.865795   -0.009016   -0.299499
 ---------------------------------------------------------------------

 SCF Done:  E(UB3LYP) =  -308.228177615     A.U. after    1 cycles

 The electronic state is 2-A.
 Alpha  occ. eigenvalues --  -19.18977 -19.18717 -10.25447 -10.20784 -10.17916
 Alpha  occ. eigenvalues --  -10.17211  -1.13042  -0.89163  -0.79944  -0.71385
 Alpha  occ. eigenvalues --   -0.70821  -0.57763  -0.52149  -0.48915  -0.47844
 Alpha  occ. eigenvalues --   -0.44768  -0.44085  -0.40907  -0.39356  -0.38726
 Alpha  occ. eigenvalues --   -0.36845  -0.35964  -0.34077  -0.26895  -0.25199
 Alpha virt. eigenvalues --    0.02647   0.03255   0.07000   0.07584   0.08461
 Alpha virt. eigenvalues --    0.09310   0.10598   0.12115   0.13344   0.14375
 Alpha virt. eigenvalues --    0.15373   0.17171   0.18055   0.19104   0.23427

  Beta  occ. eigenvalues --  -19.18596 -19.17702 -10.25459 -10.19877 -10.17897
  Beta  occ. eigenvalues --  -10.17207  -1.11740  -0.87427  -0.78863  -0.70775
  Beta  occ. eigenvalues --   -0.69798  -0.56827  -0.50564  -0.48119  -0.47284
  Beta  occ. eigenvalues --   -0.43689  -0.43170  -0.40638  -0.39055  -0.38385
  Beta  occ. eigenvalues --   -0.36250  -0.34750  -0.33190  -0.24180
  Beta virt. eigenvalues --   -0.13929   0.02885   0.03879   0.07114   0.07810
  Beta virt. eigenvalues --    0.08651   0.09440   0.10733   0.12342   0.13623
  Beta virt. eigenvalues --    0.14613   0.16076   0.17815   0.18615   0.19304

 Mulliken charges and spin densities:
               1          2
     1  C    0.260927   0.006267
     2  C   -0.293782   0.599574
     3  H    0.183744  -0.049592
     4  H    0.115578  -0.010965
     5  H    0.113250  -0.013874
     6  C   -0.290216   0.001174
     7  H    0.088503  -0.000365
     8  H    0.096645   0.000028
     9  H    0.107370   0.000026
    10  C   -0.291900   0.005376
    11  H    0.101894  -0.000834
    12  H    0.104522   0.009381
    13  H    0.093013   0.000286
    14  O   -0.180538   0.032455
    15  O   -0.209008   0.421062
 Sum of Mulliken charges =  -0.00000   1.00000

 Dipole moment (field-independent basis, Debye):
    X=              2.3906    Y=              0.1702    Z=              2.0274  Tot=              3.1391
 Quadrupole moment (field-independent basis, Debye-Ang):
   XX=            -40.4999   YY=            -37.3555   ZZ=            -37.6023
   XY=             -0.3542   XZ=             -2.3984   YZ=             -0.8561

  Exact polarizability:  64.699  -1.964  55.955   2.161  -3.400  64.370
 Approx polarizability:  96.691  -4.439  74.345   7.600  -3.016  98.160

 ******    1 imaginary frequencies (negative Signs) ******

                      1                      2                      3
                      A                      A                      A
 Frequencies --  -2232.9375               188.9270               195.0793
 Red. masses --      1.1021                 1.3000                 2.0442
 Frc consts  --      3.2375                 0.0273                 0.0458
 IR Inten    --    886.2414                 0.2890                 0.6558

                      4                      5                      6
                      A                      A                      A
 Frequencies --    238.4295               299.3179               339.7262
 Red. masses --      1.0515                 2.5577                 2.2779
 Frc consts  --      0.0352                 0.1350                 0.1549
 IR Inten    --      0.1550                 2.2262                 1.4805

                      7                      8                      9
                      A                      A                      A
 Frequencies --    392.5465               406.8249               507.8713
 Red. masses --      1.6793                 2.1275                 2.2817
 Frc consts  --      0.1525                 0.2075                 0.3467
 IR Inten    --      1.4905                 4.3001                 1.2836

                     10                     11                     12
                      A                      A                      A
 Frequencies --    569.9865               639.6141               782.1498
 Red. masses --      2.9772                 4.5117                 4.0841
 Frc consts  --      0.5699                 1.0875                 1.4720
 IR Inten    --      4.8032                 7.1017                 0.8528

                     13                     14                     15
                      A                      A                      A
 Frequencies --    833.1641               905.6383               924.3858
 Red. masses --      3.4721                 1.9606                 2.2855
 Frc consts  --      1.4200                 0.9475                 1.1506
 IR Inten    --      8.3166                 4.1527                 9.0329

                     16                     17                     18
                      A                      A                      A
 Frequencies --    946.5922               972.7926              1017.4376
 Red. masses --      2.3062                 1.2457                 1.4367
 Frc consts  --      1.2175                 0.6945                 0.8763
 IR Inten    --      8.5288                 1.2909                 6.7535

                     19                     20                     21
                      A                      A                      A
 Frequencies --   1042.7846              1108.3458              1173.1397
 Red. masses --      1.4276                 1.0943                 2.1429
 Frc consts  --      0.9147                 0.7921                 1.7376
 IR Inten    --      0.3296                30.0944                 5.2448

                     22                     23                     24
                      A                      A                      A
 Frequencies --   1248.6215              1270.3820              1399.7768
 Red. masses --      2.6912                 3.1243                 1.2758
 Frc consts  --      2.4720                 2.9708                 1.4729
 IR Inten    --     31.0060                16.4151                16.7806

                     25                     26                     27
                      A                      A                      A
 Frequencies --   1414.8222              1455.1113              1479.1162
 Red. masses --      1.2411                 1.1341                 1.0526
 Frc consts  --      1.4637                 1.4149                 1.3568
 IR Inten    --      8.7812                 5.1282                 2.2653

                     28                     29                     30
                      A                      A                      A
 Frequencies --   1488.0157              1496.2509              1509.6754
 Red. masses --      1.0482                 1.0632                 1.0518
 Frc consts  --      1.3674                 1.4025                 1.4123
 IR Inten    --      0.8365                 2.1850                10.1627

                     31                     32                     33
                      A                      A                      A
 Frequencies --   1710.7843              3034.9281              3040.1094
 Red. masses --      1.0384                 1.0346                 1.0354
 Frc consts  --      1.7906                 5.6148                 5.6383
 IR Inten    --     29.1092                10.5604                15.1262

                     34                     35                     36
                      A                      A                      A
 Frequencies --   3094.7877              3098.0676              3104.1973
 Red. masses --      1.0543                 1.1014                 1.1004
 Frc consts  --      5.9494                 6.2282                 6.2473
 IR Inten    --      5.7297                 0.3119                25.5139

                     37                     38                     39
                      A                      A                      A
 Frequencies --   3113.5280              3118.9170              3184.8277
 Red. masses --      1.1024                 1.1022                 1.1131
 Frc consts  --      6.2965                 6.3171                 6.6523
 IR Inten    --     17.1319                12.8786                 9.7299

 - Thermochemistry -
 -------------------
 Temperature   298.150 Kelvin.  Pressure   1.00000 Atm.
 Atom     1 has atomic number  6 and mass  12.00000

 Molecular mass:    89.06025 amu.
 Principal axes and moments of inertia in atomic units:
                           1         2         3
     Eigenvalues --   382.86044 599.60790 621.75913
           X            0.99835  -0.01809  -0.05447
           Y            0.01082   0.99135  -0.13083
           Z            0.05637   0.13002   0.98991
 This molecule is an asymmetric top.
 Rotational symmetry number  1.
 Rotational temperatures (Kelvin)      0.22623     0.14445     0.13930
 Rotational constants (GHZ):           4.71384     3.00987     2.90264
    1 imaginary frequencies ignored.
 Zero-point vibrational energy     315495.2 (Joules/Mol)
                                   75.40515 (Kcal/Mol)
 Warning -- explicit consideration of   9 degrees of freedom as
           vibrations may cause significant error
 Vibrational temperatures:    271.82   280.68   343.05   430.65   488.79
          (Kelvin)            564.79   585.33   730.71   820.08   920.26
                             1125.34  1198.74  1303.01  1329.98  1361.93
                             1399.63  1463.87  1500.33  1594.66  1687.89
                             1796.49  1827.80  2013.97  2035.61  2093.58
                             2128.12  2140.92  2152.77  2172.09  2461.44
                             4366.58  4374.04  4452.71  4457.43  4466.25
                             4479.67  4487.43  4582.26

 Zero-point correction=                           0.120166 (Hartree/Particle)
 Thermal correction to Energy=                    0.127115
 Thermal correction to Enthalpy=                  0.128059
 Thermal correction to Gibbs Free Energy=         0.089640
 Sum of electronic and zero-point Energies=           -308.108012
 Sum of electronic and thermal Energies=              -308.101063
 Sum of electronic and thermal Enthalpies=            -308.100118
 Sum of electronic and thermal Free Energies=         -308.138538

                     E (Thermal)             CV                S
                      KCal/Mol        Cal/Mol-Kelvin    Cal/Mol-Kelvin
 Total                   79.766             26.184             80.860
 Electronic               0.000              0.000              1.377
 Translational            0.889              2.981             39.373
 Rotational               0.889              2.981             26.459
 Vibrational             77.988             20.223             13.651
 Vibration     1          0.633              1.855              2.238
 Vibration     2          0.636              1.847              2.179
 Vibration     3          0.656              1.782              1.815
 Vibration     4          0.692              1.675              1.421
 Vibration     5          0.720              1.596              1.213
 Vibration     6          0.760              1.486              0.990
 Vibration     7          0.772              1.455              0.938
 Vibration     8          0.863              1.233              0.639
 Vibration     9          0.926              1.096              0.504

                           ! Non-Optimized Parameters !
 Normal termination of Gaussian 16 at Wed Mar 30 17:00:08 2022.
