 Gaussian 16, Revision C.01,
 Gaussian 16:  EM64L-G16RevC.01  3-Jul-2019

 ----------------------------------------------------------------------
 #p B3LYP/cc-PVTZ scf(verytight, maxcycles=1000) opt(calcfc, maxcyc=100
 0) freq(hpmodes) int(grid=ultrafine)
 ----------------------------------------------------------------------

 ------
 Mol_05
 ------
 Symbolic Z-matrix:
 Charge =  0 Multiplicity = 1

 SCF Done:  E(RB3LYP) =  -232.332997506     A.U. after    9 cycles
 SCF Done:  E(RB3LYP) =  -232.333368393     A.U. after    6 cycles
 Optimization completed.
    -- Stationary point found.
 Normal termination of Gaussian 16 at Sun Apr  3 21:20:50 2022.

 -------------------------------------------------------------------
 #P Geom=AllCheck Guess=TCheck SCRF=Check GenChk RB3LYP/CC-pVTZ Freq
 -------------------------------------------------------------------

 Structure from the checkpoint file:  "Mol_05.chk"
 ------
 Mol_05
 ------
 Charge =  0 Multiplicity = 1

                         Standard orientation:
 ---------------------------------------------------------------------
 Center     Atomic      Atomic             Coordinates (Angstroms)
 Number     Number       Type             X           Y           Z
 ---------------------------------------------------------------------
      1          6           0        1.204275    0.000000    0.695286
      2          6           0        0.000000    0.000000    1.390572
      3          6           0       -1.204275   -0.000000    0.695286
      4          6           0       -1.204275    0.000000   -0.695286
      5          6           0        0.000000    0.000000   -1.390572
      6          6           0        1.204275   -0.000000   -0.695286
      7          1           0       -0.000000   -0.000000   -2.472631
      8          1           0       -2.141364   -0.000000    1.236319
      9          1           0       -0.000000   -0.000000    2.472631
     10          1           0       -2.141364    0.000000   -1.236319
     11          1           0        2.141364    0.000000    1.236319
     12          1           0        2.141364   -0.000000   -1.236319
 ---------------------------------------------------------------------

 SCF Done:  E(RB3LYP) =  -232.333368393     A.U. after    1 cycles

 The electronic state is 1-A.
 Alpha  occ. eigenvalues --  -10.17851 -10.17825 -10.17825 -10.17765 -10.17765
 Alpha  occ. eigenvalues --  -10.17738  -0.85793  -0.74909  -0.74909  -0.60577
 Alpha  occ. eigenvalues --   -0.60577  -0.52781  -0.46361  -0.45069  -0.42508
 Alpha  occ. eigenvalues --   -0.42508  -0.37238  -0.34767  -0.34767  -0.25835
 Alpha  occ. eigenvalues --   -0.25835
 Alpha virt. eigenvalues --   -0.01203  -0.01203   0.03946   0.07085   0.07085
 Alpha virt. eigenvalues --    0.10192   0.10192   0.12767   0.14439   0.23187
 Alpha virt. eigenvalues --    0.23187   0.25702   0.26072   0.26569   0.26569

 Mulliken charges:
               1
     1  C   -0.104840
     2  C   -0.104840
     3  C   -0.104840
     4  C   -0.104840
     5  C   -0.104840
     6  C   -0.104840
     7  H    0.104840
     8  H    0.104840
     9  H    0.104840
    10  H    0.104840
    11  H    0.104840
    12  H    0.104840
 Sum of Mulliken charges =   0.00000

 Dipole moment (field-independent basis, Debye):
    X=              0.0000    Y=              0.0000    Z=             -0.0000  Tot=              0.0000
 Quadrupole moment (field-independent basis, Debye-Ang):
   XX=            -32.1241   YY=            -39.5494   ZZ=            -32.1241
   XY=              0.0000   XZ=              0.0000   YZ=             -0.0000

  Exact polarizability:      77.261       0.000      33.804       0.000       0.000      77.262
 Approx polarizability:     127.759      -0.000      53.470      -0.000       0.000     127.759

                      1                      2                      3
                     B2                      A                      A
 Frequencies --    414.2583               414.2664               624.2435
 Red. masses --      2.8656                 2.8658                 6.0759
 Frc consts  --      0.2897                 0.2898                 1.3950
 IR Inten    --      0.0000                 0.0000                 0.0000

                      4                      5                      6
                     B2                     B2                     B3
 Frequencies --    624.2601               691.3378               726.8158
 Red. masses --      6.0754                 1.0848                 3.5644
 Frc consts  --      1.3950                 0.3055                 1.1094
 IR Inten    --      0.0000               103.5657                 0.0000

                      7                      8                      9
                     B3                     B1                     B2
 Frequencies --    867.7603               867.8529               988.7645
 Red. masses --      1.2476                 1.2476                 1.3763
 Frc consts  --      0.5535                 0.5536                 0.7928
 IR Inten    --      0.0000                 0.0000                 0.0000

                     10                     11                     12
                      A                      A                     B3
 Frequencies --    988.8385              1015.7570              1022.1306
 Red. masses --      1.3762                 6.0380                 1.2578
 Frc consts  --      0.7928                 3.6705                 0.7743
 IR Inten    --      0.0000                 0.0000                 0.0000

                     13                     14                     15
                     B1                     B1                     B3
 Frequencies --   1030.6246              1062.5109              1062.5212
 Red. masses --      6.5347                 1.7132                 1.7130
 Frc consts  --      4.0896                 1.1395                 1.1394
 IR Inten    --      0.0000                 4.7264                 4.7258

                     16                     17                     18
                     B3                     B2                      A
 Frequencies --   1176.7232              1200.5782              1200.6070
 Red. masses --      1.1064                 1.1402                 1.1402
 Frc consts  --      0.9027                 0.9683                 0.9684
 IR Inten    --      0.0000                 0.0000                 0.0000

                     19                     20                     21
                     B3                     B2                     B3
 Frequencies --   1336.0266              1389.9919              1519.1495
 Red. masses --      5.8220                 1.2476                 1.9998
 Frc consts  --      6.1228                 1.4202                 2.7192
 IR Inten    --      0.0000                 0.0000                 7.9517

                     22                     23                     24
                     B1                     B2                      A
 Frequencies --   1519.1555              1638.0856              1638.1330
 Red. masses --      1.9995                 5.2665                 5.2661
 Frc consts  --      2.7188                 8.3261                 8.3260
 IR Inten    --      7.9532                 0.0000                 0.0000

                     25                     26                     27
                     B1                      A                     B2
 Frequencies --   3156.6715              3166.4396              3166.4962
 Red. masses --      1.0840                 1.0874                 1.0874
 Frc consts  --      6.3639                 6.4236                 6.4239
 IR Inten    --      0.0001                 0.0000                 0.0000

                     28                     29                     30
                     B1                     B3                      A
 Frequencies --   3182.1573              3182.2164              3192.2781
 Red. masses --      1.0946                 1.0946                 1.0990
 Frc consts  --      6.5306                 6.5308                 6.5983
 IR Inten    --     39.4196                39.4168                 0.0000

 - Thermochemistry -
 -------------------
 Temperature   298.150 Kelvin.  Pressure   1.00000 Atm.
 Atom     1 has atomic number  6 and mass  12.00000

 Molecular mass:    78.04695 amu.
 Principal axes and moments of inertia in atomic units:
                           1         2         3
     Eigenvalues --   314.60405 314.60583 629.20988
           X            1.00000   0.00000   0.00000
           Y           -0.00000   0.00000   1.00000
           Z           -0.00000   1.00000  -0.00000
 This molecule is an asymmetric top.
 Rotational symmetry number  4.
 Rotational temperatures (Kelvin)      0.27531     0.27531     0.13766
 Rotational constants (GHZ):           5.73655     5.73652     2.86827
 Zero-point vibrational energy     263577.1 (Joules/Mol)
                                   62.99644 (Kcal/Mol)
 Warning -- explicit consideration of   2 degrees of freedom as
           vibrations may cause significant error
 Vibrational temperatures:    596.03   596.04   898.15   898.17   994.68
          (Kelvin)           1045.73  1248.51  1248.65  1422.61  1422.72
                             1461.45  1470.62  1482.84  1528.72  1528.73
                             1693.04  1727.36  1727.41  1922.24  1999.89
                             2185.72  2185.73  2356.84  2356.91  4541.75
                             4555.80  4555.88  4578.41  4578.50  4592.98

 Zero-point correction=                           0.100391 (Hartree/Particle)
 Thermal correction to Energy=                    0.104770
 Thermal correction to Enthalpy=                  0.105714
 Thermal correction to Gibbs Free Energy=         0.074253
 Sum of electronic and zero-point Energies=           -232.232977
 Sum of electronic and thermal Energies=              -232.228599
 Sum of electronic and thermal Enthalpies=            -232.227655
 Sum of electronic and thermal Free Energies=         -232.259115

                     E (Thermal)             CV                S
                      KCal/Mol        Cal/Mol-Kelvin    Cal/Mol-Kelvin
 Total                   65.744             17.085             66.214
 Electronic               0.000              0.000              0.000
 Translational            0.889              2.981             38.979
 Rotational               0.889              2.981             22.880
 Vibrational             63.966             11.124              4.355
 Vibration     1          0.778              1.439              0.912
 Vibration     2          0.778              1.439              0.912

 Optimization completed.
    -- Stationary point found.
 Normal termination of Gaussian 16 at Sun Apr  3 21:22:30 2022.
