 Gaussian 16, Revision C.01,
 Gaussian 16:  ES64L-G16RevC.01  3-Jul-2019

 ----------------------------------------------------------------------
 #p B3LYP/cc-PVTZ scf(verytight, maxcycles=1000) opt(calcfc, maxcyc=100
 0) freq(hpmodes) int(grid=ultrafine)
 ----------------------------------------------------------------------

 ------
 Mol_01
 ------
 Symbolic Z-matrix:
 Charge =  0 Multiplicity = 2

 SCF Done:  E(UB3LYP) =  -232.862172655     A.U. after   17 cycles
 SCF Done:  E(UB3LYP) =  -232.877589757     A.U. after   16 cycles
 SCF Done:  E(UB3LYP) =  -232.878684881     A.U. after   14 cycles
 SCF Done:  E(UB3LYP) =  -232.878749773     A.U. after   12 cycles
 SCF Done:  E(UB3LYP) =  -232.878765768     A.U. after   11 cycles
 SCF Done:  E(UB3LYP) =  -232.878766364     A.U. after    9 cycles
 Optimization completed.
    -- Stationary point found.

 1\1\GINC-MEDIAWIKI\FOpt\UB3LYP\CC-pVTZ\C6H7(2)\SAURABH\06-Apr-2022\0\\
 #p B3LYP/cc-PVTZ scf(verytight, maxcycles=1000) opt(calcfc, maxcyc=100
 0) freq(hpmodes) int(grid=ultrafine)\\Mol_01\\0,2\C,0.7372401667,1.222
 001028,0.0000287706\C,1.4502611085,0.0008141514,0.000057558\C,0.738600
 4555,-1.2212016945,0.0000187672\C,-0.6207684567,-1.252254557,-0.000045
 564\C,-1.4431169737,-0.0008010717,-0.0000730949\C,-0.6221615151,1.2515
 588398,-0.0000329715\H,-2.1301333825,-0.0011922994,0.8625470529\H,-2.1
 30062938,-0.0011836729,-0.8627490965\H,-1.1449783617,-2.1993766981,-0.

 Normal termination of Gaussian 16 at Wed Apr  6 22:54:59 2022.

 -------------------------------------------------------------------
 #P Geom=AllCheck Guess=TCheck SCRF=Check GenChk UB3LYP/CC-pVTZ Freq
 -------------------------------------------------------------------

 Structure from the checkpoint file:  "Mol_01.chk"
 ------
 Mol_01
 ------
 Charge =  0 Multiplicity = 2

                         Standard orientation:
 ---------------------------------------------------------------------
 Center     Atomic      Atomic             Coordinates (Angstroms)
 Number     Number       Type             X           Y           Z
 ---------------------------------------------------------------------
      1          6           0       -0.737889    1.221604   -0.000038
      2          6           0       -1.450248    0.000031   -0.000067
      3          6           0       -0.737926   -1.221599   -0.000028
      4          6           0        0.621460   -1.251915    0.000036
      5          6           0        1.443130   -0.000017    0.000064
      6          6           0        0.621497    1.251898    0.000024
      7          1           0        2.130147   -0.000036   -0.862556
      8          1           0        2.130077   -0.000027    0.862740
      9          1           0        1.146183   -2.198753    0.000065
     10          1           0       -1.291116   -2.152801   -0.000050
     11          1           0       -2.530657    0.000054   -0.000118
     12          1           0        1.146249    2.198707    0.000045
     13          1           0       -1.291031    2.152836   -0.000066
 ---------------------------------------------------------------------

 SCF Done:  E(UB3LYP) =  -232.878766364     A.U. after    1 cycles

 The electronic state is 2-A.
 Alpha  occ. eigenvalues --  -10.18463 -10.17870 -10.17869 -10.17567 -10.17186
 Alpha  occ. eigenvalues --  -10.17183  -0.84841  -0.74969  -0.74969  -0.62510
 Alpha  occ. eigenvalues --   -0.59303  -0.51749  -0.47255  -0.44216  -0.43963
 Alpha  occ. eigenvalues --   -0.42145  -0.40641  -0.35196  -0.33316  -0.33108
 Alpha  occ. eigenvalues --   -0.27257  -0.16911
 Alpha virt. eigenvalues --   -0.00852   0.03664   0.06657   0.07151   0.08056
 Alpha virt. eigenvalues --    0.09594   0.10033   0.11219   0.12534   0.18448
 Alpha virt. eigenvalues --    0.21550   0.24791   0.25754   0.26250   0.28344

  Beta  occ. eigenvalues --  -10.18534 -10.17448 -10.17446 -10.17285 -10.17284
  Beta  occ. eigenvalues --  -10.16801  -0.84091  -0.74356  -0.74109  -0.61364
  Beta  occ. eigenvalues --   -0.58833  -0.51526  -0.46646  -0.43917  -0.42624
  Beta  occ. eigenvalues --   -0.41976  -0.40237  -0.34829  -0.32895  -0.31247
  Beta  occ. eigenvalues --   -0.25354
  Beta virt. eigenvalues --   -0.07591   0.00556   0.03788   0.06756   0.07199
  Beta virt. eigenvalues --    0.09216   0.09845   0.10143   0.12304   0.12726
  Beta virt. eigenvalues --    0.18645   0.21846   0.24886   0.25923   0.26349

 Mulliken charges and spin densities:
               1          2
     1  C   -0.117865  -0.160420
     2  C   -0.110096   0.519527
     3  C   -0.117873  -0.160417
     4  C   -0.129020   0.392447
     5  C   -0.111957  -0.047774
     6  C   -0.129026   0.392490
     7  H    0.092292   0.052183
     8  H    0.092292   0.052182
     9  H    0.108878  -0.014364
    10  H    0.105209   0.005299
    11  H    0.103080  -0.022085
    12  H    0.108882  -0.014365
    13  H    0.105206   0.005299
 Sum of Mulliken charges =  -0.00000   1.00000

 Dipole moment (field-independent basis, Debye):
    X=              0.5014    Y=             -0.0000    Z=              0.0000  Tot=              0.5014
 Quadrupole moment (field-independent basis, Debye-Ang):
   XX=            -33.1212   YY=            -34.2867   ZZ=            -39.5217
   XY=              0.0001   XZ=              0.0003   YZ=             -0.0000

  Exact polarizability:      83.126       0.000      75.972       0.002      -0.000      38.948
 Approx polarizability:     134.694       0.000     111.194       0.003      -0.000      61.069

                      1                      2                      3
                      A                      A                      A
 Frequencies --    176.0298               387.1752               530.6199
 Red. masses --      1.8866                 3.0228                 2.0600
 Frc consts  --      0.0344                 0.2670                 0.3417
 IR Inten    --      0.3247                 0.0000                10.0100

                      4                      5                      6
                      A                      A                      A
 Frequencies --    567.3433               595.0751               637.9271
 Red. masses --      5.9573                 6.4433                 1.1047
 Frc consts  --      1.1298                 1.3443                 0.2649
 IR Inten    --      0.0538                 1.0267                77.6216

                      7                      8                      9
                      A                      A                      A
 Frequencies --    730.5061               778.3793               870.6522
 Red. masses --      1.1917                 1.4675                 3.9208
 Frc consts  --      0.3747                 0.5239                 1.7511
 IR Inten    --      0.0000                 0.0591                 2.8797

                     10                     11                     12
                      A                      A                      A
 Frequencies --    937.4595               968.2708               975.7039
 Red. masses --      1.8960                 1.9211                 1.2883
 Frc consts  --      0.9818                 1.0612                 0.7226
 IR Inten    --      7.7925                 8.0090                 0.0000

                     13                     14                     15
                      A                      A                      A
 Frequencies --    981.1546               989.0958              1002.7897
 Red. masses --      1.2747                 2.6735                 6.1455
 Frc consts  --      0.7230                 1.5410                 3.6410
 IR Inten    --      0.6340                 4.6132                 0.0060

                     16                     17                     18
                      A                      A                      A
 Frequencies --   1111.3566              1172.9426              1181.5453
 Red. masses --      1.5480                 1.0540                 1.0931
 Frc consts  --      1.1265                 0.8543                 0.8991
 IR Inten    --      0.3658                 0.2149                 0.0000

                     19                     20                     21
                      A                      A                      A
 Frequencies --   1200.5367              1308.1508              1375.8194
 Red. masses --      1.1561                 3.3513                 1.3098
 Frc consts  --      0.9817                 3.3789                 1.4607
 IR Inten    --      0.0015                 5.8376                 0.1046

                     22                     23                     24
                      A                      A                      A
 Frequencies --   1419.3486              1436.2672              1461.7327
 Red. masses --      2.0266                 1.1139                 1.5806
 Frc consts  --      2.4054                 1.3539                 1.9898
 IR Inten    --      1.6143                 6.7306                 4.0864

                     25                     26                     27
                      A                      A                      A
 Frequencies --   1548.2440              1611.6555              2898.3662
 Red. masses --      2.8954                 4.3608                 1.0958
 Frc consts  --      4.0891                 6.6735                 5.4236
 IR Inten    --      1.8969                 0.0879                21.7968

                     28                     29                     30
                      A                      A                      A
 Frequencies --   2917.0645              3151.0892              3153.2749
 Red. masses --      1.0581                 1.0852                 1.0850
 Frc consts  --      5.3049                 6.3484                 6.3561
 IR Inten    --     44.9495                 8.6381                 1.6888

                     31                     32                     33
                      A                      A                      A
 Frequencies --   3171.2412              3172.2629              3195.2074
 Red. masses --      1.0918                 1.0937                 1.0937
 Frc consts  --      6.4692                 6.4849                 6.5787
 IR Inten    --      3.6150                48.2212                13.9592

 - Thermochemistry -
 -------------------
 Temperature   298.150 Kelvin.  Pressure   1.00000 Atm.
 Atom     1 has atomic number  6 and mass  12.00000

 Molecular mass:    79.05478 amu.
 Principal axes and moments of inertia in atomic units:
                           1         2         3
     Eigenvalues --   335.73791 341.57315 666.59809
           X            1.00000  -0.00003  -0.00005
           Y            0.00003   1.00000   0.00000
           Z            0.00005  -0.00000   1.00000
 This molecule is an asymmetric top.
 Rotational symmetry number  1.
 Rotational temperatures (Kelvin)      0.25798     0.25357     0.12993
 Rotational constants (GHZ):           5.37545     5.28362     2.70739
 Zero-point vibrational energy     284796.7 (Joules/Mol)
                                   68.06804 (Kcal/Mol)
 Warning -- explicit consideration of   5 degrees of freedom as
           vibrations may cause significant error
 Vibrational temperatures:    253.27   557.06   763.44   816.28   856.18
          (Kelvin)            917.83  1051.04  1119.91  1252.67  1348.80
                             1393.13  1403.82  1411.66  1423.09  1442.79
                             1598.99  1687.60  1699.98  1727.30  1882.14
                             1979.50  2042.13  2066.47  2103.11  2227.58
                             2318.81  4170.10  4197.01  4533.71  4536.86
                             4562.71  4564.18  4597.19

 Zero-point correction=                           0.108473 (Hartree/Particle)
 Thermal correction to Energy=                    0.113523
 Thermal correction to Enthalpy=                  0.114468
 Thermal correction to Gibbs Free Energy=         0.079720
 Sum of electronic and zero-point Energies=           -232.770293
 Sum of electronic and thermal Energies=              -232.765243
 Sum of electronic and thermal Enthalpies=            -232.764299
 Sum of electronic and thermal Free Energies=         -232.799047

                     E (Thermal)             CV                S
                      KCal/Mol        Cal/Mol-Kelvin    Cal/Mol-Kelvin
 Total                   71.237             19.608             73.133
 Electronic               0.000              0.000              1.377
 Translational            0.889              2.981             39.017
 Rotational               0.889              2.981             25.839
 Vibrational             69.460             13.647              6.899
 Vibration     1          0.628              1.872              2.370
 Vibration     2          0.756              1.498              1.011
 Vibration     3          0.886              1.182              0.586
 Vibration     4          0.923              1.102              0.509
 Vibration     5          0.953              1.042              0.458

 Optimization completed.
    -- Stationary point found.

 1\1\GINC-MEDIAWIKI\Freq\UB3LYP\CC-pVTZ\C6H7(2)\SAURABH\06-Apr-2022\0\\
 #P Geom=AllCheck Guess=TCheck SCRF=Check GenChk UB3LYP/CC-pVTZ Freq\\M
 ol_01\\0,2\C,0.7372401667,1.222001028,0.0000287706\C,1.4502611085,0.00
 08141514,0.000057558\C,0.7386004555,-1.2212016945,0.0000187672\C,-0.62
 07684567,-1.252254557,-0.000045564\C,-1.4431169737,-0.0008010717,-0.00
 00730949\C,-0.6221615151,1.2515588398,-0.0000329715\H,-2.1301333825,-0
 .0011922994,0.8625470529\H,-2.130062938,-0.0011836729,-0.8627490965\H,
 -1.1449783617,-2.1993766981,-0.0000746374\H,1.2922953664,-2.1521040656

 Normal termination of Gaussian 16 at Wed Apr  6 23:01:01 2022.
