 Gaussian 16, Revision C.01,
 Gaussian 16:  EM64L-G16RevC.01  3-Jul-2019

 ----------------------------------------------------------------------
 #p B3LYP/cc-PVTZ scf(verytight, maxcycles=1000) opt(calcfc, maxcyc=100
 0) freq(hpmodes) int(grid=ultrafine)
 ----------------------------------------------------------------------

 ------
 Mol_04
 ------
 Symbolic Z-matrix:
 Charge =  0 Multiplicity = 1

 SCF Done:  E(RB3LYP) =  -307.490557544     A.U. after   12 cycles
 SCF Done:  E(RB3LYP) =  -307.506000094     A.U. after   12 cycles
 SCF Done:  E(RB3LYP) =  -307.508202361     A.U. after   11 cycles
 SCF Done:  E(RB3LYP) =  -307.508242882     A.U. after   10 cycles
 SCF Done:  E(RB3LYP) =  -307.508245383     A.U. after    8 cycles
 Optimization completed.
    -- Stationary point found.
 Normal termination of Gaussian 16 at Sun Apr  3 21:33:20 2022.

 -------------------------------------------------------------------
 #P Geom=AllCheck Guess=TCheck SCRF=Check GenChk RB3LYP/CC-pVTZ Freq
 -------------------------------------------------------------------

 Structure from the checkpoint file:  "Mol_04.chk"
 ------
 Mol_04
 ------
 Charge =  0 Multiplicity = 1

                         Standard orientation:
 ---------------------------------------------------------------------
 Center     Atomic      Atomic             Coordinates (Angstroms)
 Number     Number       Type             X           Y           Z
 ---------------------------------------------------------------------
      1          6           0       -1.433779    0.722586    0.125465
      2          6           0       -1.433779   -0.722586    0.125465
      3          6           0       -0.326795   -1.426679   -0.179528
      4          6           0        0.967023   -0.756897   -0.321931
      5          6           0        0.967023    0.756897   -0.321931
      6          6           0       -0.326795    1.426679   -0.179528
      7          1           0       -0.376011   -2.493879   -0.351591
      8          1           0       -2.377087   -1.233908    0.267104
      9          8           0        1.439253   -0.000000    0.797719
     10          1           0        1.757388   -1.278911   -0.850431
     11          1           0        1.757389    1.278910   -0.850431
     12          1           0       -0.376011    2.493879   -0.351591
     13          1           0       -2.377087    1.233909    0.267104
 ---------------------------------------------------------------------

 SCF Done:  E(RB3LYP) =  -307.508245383     A.U. after    1 cycles

 The electronic state is 1-A.
 Alpha  occ. eigenvalues --  -19.14411 -10.23864 -10.23839 -10.18615 -10.18578
 Alpha  occ. eigenvalues --  -10.18392 -10.18392  -1.07987  -0.83393  -0.76390
 Alpha  occ. eigenvalues --   -0.69994  -0.63668  -0.60168  -0.54415  -0.49729
 Alpha  occ. eigenvalues --   -0.48153  -0.46149  -0.44182  -0.40627  -0.37860
 Alpha  occ. eigenvalues --   -0.36558  -0.36339  -0.28906  -0.27848  -0.24101
 Alpha virt. eigenvalues --   -0.05345   0.03143   0.03550   0.06476   0.06489
 Alpha virt. eigenvalues --    0.09268   0.09534   0.12527   0.14151   0.15730
 Alpha virt. eigenvalues --    0.21857   0.22508   0.23372   0.24746   0.25950

 Mulliken charges:
               1
     1  C   -0.096985
     2  C   -0.096985
     3  C   -0.130022
     4  C    0.065274
     5  C    0.065274
     6  C   -0.130022
     7  H    0.115238
     8  H    0.108400
     9  O   -0.307068
    10  H    0.091629
    11  H    0.091629
    12  H    0.115238
    13  H    0.108400
 Sum of Mulliken charges =  -0.00000

 Dipole moment (field-independent basis, Debye):
    X=             -0.8379    Y=              0.0000    Z=             -1.6692  Tot=              1.8677
 Quadrupole moment (field-independent basis, Debye-Ang):
   XX=            -38.9958   YY=            -36.2389   ZZ=            -44.3542
   XY=              0.0000   XZ=             -3.8056   YZ=              0.0000

  Exact polarizability:      75.274       0.000      78.351      -5.594       0.000      41.796
 Approx polarizability:     119.231       0.000     128.195      -6.932      -0.000      69.094

                      1                      2                      3
                      A                      A                      A
 Frequencies --    254.5645               319.6290               464.0374
 Red. masses --      4.4344                 2.9264                 2.5566
 Frc consts  --      0.1693                 0.1761                 0.3244
 IR Inten    --      6.1681                 0.0944                10.7028

                      4                      5                      6
                      A                      A                      A
 Frequencies --    544.0407               617.7931               641.4945
 Red. masses --      6.6743                 3.0447                 3.5392
 Frc consts  --      1.1639                 0.6847                 0.8581
 IR Inten    --      0.7427                 4.8623                 1.3021

                      7                      8                      9
                      A                      A                      A
 Frequencies --    700.2252               776.4804               778.8320
 Red. masses --      4.0781                 2.0334                 2.0000
 Frc consts  --      1.1781                 0.7223                 0.7148
 IR Inten    --     22.8602                 0.5269                74.2625

                     10                     11                     12
                      A                      A                      A
 Frequencies --    848.4227               937.1743               978.9011
 Red. masses --      2.5266                 3.1590                 1.5362
 Frc consts  --      1.0715                 1.6347                 0.8673
 IR Inten    --      0.0517                17.8027                 2.5957

                     13                     14                     15
                      A                      A                      A
 Frequencies --    980.7757               985.0101               998.5682
 Red. masses --      2.9447                 3.0915                 1.3167
 Frc consts  --      1.6689                 1.7673                 0.7735
 IR Inten    --      0.0565                12.6880                 0.4815

                     16                     17                     18
                      A                      A                      A
 Frequencies --   1011.0676              1060.3064              1139.2626
 Red. masses --      2.1002                 1.3027                 1.3264
 Frc consts  --      1.2649                 0.8629                 1.0143
 IR Inten    --     18.1684                 9.9191                 0.0149

                     19                     20                     21
                      A                      A                      A
 Frequencies --   1191.0942              1207.9378              1254.7997
 Red. masses --      1.1986                 1.1263                 1.7079
 Frc consts  --      1.0018                 0.9683                 1.5843
 IR Inten    --      5.4926                 1.1132                 8.8651

                     22                     23                     24
                      A                      A                      A
 Frequencies --   1368.2575              1377.9465              1428.8727
 Red. masses --      1.2127                 1.8154                 1.6205
 Frc consts  --      1.3377                 2.0309                 1.9493
 IR Inten    --      0.2334                 2.0437                 3.6039

                     25                     26                     27
                      A                      A                      A
 Frequencies --   1468.0560              1598.8930              1683.8256
 Red. masses --      1.8946                 5.7169                 5.1639
 Frc consts  --      2.4058                 8.6109                 8.6263
 IR Inten    --      8.8651                 1.4232                 0.4665

                     28                     29                     30
                      A                      A                      A
 Frequencies --   3120.4087              3128.7354              3158.2146
 Red. masses --      1.0874                 1.0899                 1.0850
 Frc consts  --      6.2383                 6.2862                 6.3761
 IR Inten    --     14.3779                47.9199                 0.0195

                     31                     32                     33
                      A                      A                      A
 Frequencies --   3167.1955              3179.4352              3187.3396
 Red. masses --      1.0871                 1.0953                 1.0980
 Frc consts  --      6.4250                 6.5233                 6.5719
 IR Inten    --     11.5340                28.4784                 9.2537

 - Thermochemistry -
 -------------------
 Temperature   298.150 Kelvin.  Pressure   1.00000 Atm.
 Atom     1 has atomic number  6 and mass  12.00000

 Molecular mass:    94.04186 amu.
 Principal axes and moments of inertia in atomic units:
                           1         2         3
     Eigenvalues --   391.11756 503.39938 783.87360
           X            0.99936   0.00000  -0.03565
           Y           -0.00000   1.00000   0.00000
           Z            0.03565  -0.00000   0.99936
 This molecule is an asymmetric top.
 Rotational symmetry number  1.
 Rotational temperatures (Kelvin)      0.22145     0.17206     0.11049
 Rotational constants (GHZ):           4.61432     3.58511     2.30234
 Zero-point vibrational energy     272494.9 (Joules/Mol)
                                   65.12786 (Kcal/Mol)
 Warning -- explicit consideration of   5 degrees of freedom as
           vibrations may cause significant error
 Vibrational temperatures:    366.26   459.87   667.65   782.75   888.87
          (Kelvin)            922.97  1007.47  1117.18  1120.57  1220.69
                             1348.38  1408.42  1411.12  1417.21  1436.72
                             1454.70  1525.54  1639.14  1713.72  1737.95
                             1805.38  1968.62  1982.56  2055.83  2112.21
                             2300.45  2422.65  4489.57  4501.55  4543.97
                             4556.89  4574.50  4585.87

 Zero-point correction=                           0.103788 (Hartree/Particle)
 Thermal correction to Energy=                    0.108949
 Thermal correction to Enthalpy=                  0.109894
 Thermal correction to Gibbs Free Energy=         0.075181
 Sum of electronic and zero-point Energies=           -307.404458
 Sum of electronic and thermal Energies=              -307.399296
 Sum of electronic and thermal Enthalpies=            -307.398352
 Sum of electronic and thermal Free Energies=         -307.433064

                     E (Thermal)             CV                S
                      KCal/Mol        Cal/Mol-Kelvin    Cal/Mol-Kelvin
 Total                   68.367             20.593             73.058
 Electronic               0.000              0.000              0.000
 Translational            0.889              2.981             39.535
 Rotational               0.889              2.981             26.537
 Vibrational             66.589             14.631              6.986
 Vibration     1          0.665              1.755              1.699
 Vibration     2          0.706              1.636              1.312
 Vibration     3          0.822              1.330              0.754
 Vibration     4          0.899              1.153              0.557
 Vibration     5          0.978              0.994              0.420

 Optimization completed.
    -- Stationary point found.
 Normal termination of Gaussian 16 at Sun Apr  3 21:41:08 2022.
