 Gaussian 16, Revision C.01,
 Gaussian 16:  ES64L-G16RevC.01  3-Jul-2019

 ----------------------------------------------------------------------
 #p B3LYP/cc-PVTZ scf(verytight, maxcycles=1000) opt(calcfc, maxcyc=100
 0) freq(hpmodes) int(grid=ultrafine)
 ----------------------------------------------------------------------

 ------
 Mol_03
 ------
 Symbolic Z-matrix:
 Charge =  0 Multiplicity = 2

 SCF Done:  E(UB3LYP) =  -383.251479451     A.U. after   17 cycles
 SCF Done:  E(UB3LYP) =  -383.276313258     A.U. after   17 cycles
 SCF Done:  E(UB3LYP) =  -383.281461797     A.U. after   15 cycles
 SCF Done:  E(UB3LYP) =  -383.281948942     A.U. after   14 cycles
 SCF Done:  E(UB3LYP) =  -383.282043446     A.U. after   13 cycles
 SCF Done:  E(UB3LYP) =  -383.282060447     A.U. after   11 cycles
 SCF Done:  E(UB3LYP) =  -383.282060910     A.U. after   10 cycles
 Optimization completed.
    -- Stationary point found.
 Normal termination of Gaussian 16 at Wed Apr  6 23:21:18 2022.

 -------------------------------------------------------------------
 #P Geom=AllCheck Guess=TCheck SCRF=Check GenChk UB3LYP/CC-pVTZ Freq
 -------------------------------------------------------------------

 Structure from the checkpoint file:  "Mol_03.chk"
 ------
 Mol_03
 ------
 Charge =  0 Multiplicity = 2

                         Standard orientation:
 ---------------------------------------------------------------------
 Center     Atomic      Atomic             Coordinates (Angstroms)
 Number     Number       Type             X           Y           Z
 ---------------------------------------------------------------------
      1          6           0        2.224674    0.297077   -0.240221
      2          6           0        1.777279   -1.034396   -0.093365
      3          6           0        0.488253   -1.316405    0.235847
      4          6           0       -0.521703   -0.240470    0.461840
      5          6           0        0.025238    1.140450    0.296675
      6          6           0        1.322809    1.366364   -0.042275
      7          1           0       -0.660488    1.961840    0.453300
      8          1           0        0.143445   -2.336356    0.334018
      9          1           0        2.477762   -1.845669   -0.245703
     10          8           0       -1.597659   -0.521667   -0.485234
     11          1           0       -0.977684   -0.352737    1.455528
     12          8           0       -2.768974    0.219996   -0.045508
     13          1           0       -2.876867    0.831415   -0.785842
     14          1           0        3.251400    0.496563   -0.511848
     15          1           0        1.676194    2.382593   -0.164520
 ---------------------------------------------------------------------

 SCF Done:  E(UB3LYP) =  -383.282060910     A.U. after    1 cycles

 The electronic state is 2-A.
 Alpha  occ. eigenvalues --  -19.18491 -19.18023 -10.23826 -10.19359 -10.19054
 Alpha  occ. eigenvalues --  -10.18840 -10.18538 -10.18495  -1.11524  -0.92005
 Alpha  occ. eigenvalues --   -0.84921  -0.76313  -0.74100  -0.62615  -0.61173
 Alpha  occ. eigenvalues --   -0.53752  -0.52913  -0.49104  -0.47251  -0.45781
 Alpha  occ. eigenvalues --   -0.43509  -0.42525  -0.40678  -0.37509  -0.35596
 Alpha  occ. eigenvalues --   -0.34382  -0.31293  -0.28640  -0.26638  -0.19698
 Alpha virt. eigenvalues --   -0.02367   0.01702   0.03538   0.04790   0.06786
 Alpha virt. eigenvalues --    0.07202   0.08692   0.09453   0.10793   0.12236
 Alpha virt. eigenvalues --    0.17573   0.20690   0.22992   0.23871   0.25853

  Beta  occ. eigenvalues --  -19.18285 -19.18007 -10.23906 -10.18797 -10.18754
  Beta  occ. eigenvalues --  -10.18603 -10.18484 -10.18271  -1.11265  -0.91644
  Beta  occ. eigenvalues --   -0.84201  -0.75732  -0.73008  -0.61797  -0.60696
  Beta  occ. eigenvalues --   -0.53445  -0.52704  -0.48532  -0.46948  -0.45346
  Beta  occ. eigenvalues --   -0.43347  -0.42119  -0.40302  -0.37062  -0.34260
  Beta  occ. eigenvalues --   -0.33618  -0.30921  -0.27356  -0.25963
  Beta virt. eigenvalues --   -0.10532  -0.01179   0.02412   0.03779   0.05171
  Beta virt. eigenvalues --    0.06854   0.07761   0.09379   0.09799   0.10966
  Beta virt. eigenvalues --    0.12427   0.18303   0.21120   0.23294   0.24056

 Mulliken charges and spin densities:
               1          2
     1  C   -0.094593   0.506578
     2  C   -0.104304  -0.157420
     3  C   -0.152001   0.389416
     4  C    0.185966  -0.028118
     5  C   -0.162830   0.390833
     6  C   -0.112831  -0.158473
     7  H    0.117059  -0.013558
     8  H    0.117249  -0.013123
     9  H    0.113493   0.005224
    10  O   -0.206426   0.045619
    11  H    0.082601   0.039721
    12  O   -0.232004   0.007707
    13  H    0.226816   0.000803
    14  H    0.109643  -0.020576
    15  H    0.112162   0.005366
 Sum of Mulliken charges =  -0.00000   1.00000

 Dipole moment (field-independent basis, Debye):
    X=              1.3439    Y=              1.2267    Z=             -0.1751  Tot=              1.8280
 Quadrupole moment (field-independent basis, Debye-Ang):
   XX=            -45.7115   YY=            -42.7091   ZZ=            -48.3566
   XY=             -4.0558   XZ=              0.6559   YZ=             -2.1179

  Exact polarizability:     102.210      -2.368      81.213      -7.165      -1.602      47.371
 Approx polarizability:     155.656      -2.174     124.065     -15.409      -1.747      76.254

                      1                      2                      3
                      A                      A                      A
 Frequencies --     79.2374               122.2077               233.2789
 Red. masses --      4.3202                 6.2523                 2.8485
 Frc consts  --      0.0160                 0.0550                 0.0913
 IR Inten    --      2.4361                 4.0066                10.3859

                      4                      5                      6
                      A                      A                      A
 Frequencies --    246.1991               368.3294               384.8999
 Red. masses --      1.3088                 4.7822                 3.1666
 Frc consts  --      0.0467                 0.3823                 0.2764
 IR Inten    --    115.2957                 2.5465                 3.2563

                      7                      8                      9
                      A                      A                      A
 Frequencies --    451.4580               566.4050               589.2951
 Red. masses --      3.2310                 4.2369                 5.9455
 Frc consts  --      0.3880                 0.8008                 1.2165
 IR Inten    --      0.2128                 0.5016                 0.4923

                     10                     11                     12
                      A                      A                      A
 Frequencies --    620.1657               689.6509               758.9581
 Red. masses --      1.8924                 1.9279                 1.3347
 Frc consts  --      0.4288                 0.5402                 0.4530
 IR Inten    --     30.9397                36.8468                 0.8733

                     13                     14                     15
                      A                      A                      A
 Frequencies --    820.7487               881.0823               916.7612
 Red. masses --      1.5853                 3.8368                 9.1419
 Frc consts  --      0.6292                 1.7549                 4.5269
 IR Inten    --      0.4456                 7.8703                44.9837

                     16                     17                     18
                      A                      A                      A
 Frequencies --    921.0026               980.8896               986.0679
 Red. masses --      6.1192                 1.3094                 1.3607
 Frc consts  --      3.0582                 0.7423                 0.7795
 IR Inten    --     30.1985                 0.3714                 1.3445

                     19                     20                     21
                      A                      A                      A
 Frequencies --    995.0809              1010.7220              1042.5649
 Red. masses --      2.3274                 6.0160                 1.9619
 Frc consts  --      1.3578                 3.6209                 1.2564
 IR Inten    --      2.0312                 8.9109                 8.9279

                     22                     23                     24
                      A                      A                      A
 Frequencies --   1124.7775              1171.1189              1196.3741
 Red. masses --      1.4551                 1.0601                 1.1595
 Frc consts  --      1.0847                 0.8566                 0.9778
 IR Inten    --      0.2539                 0.2314                 0.1877

                     25                     26                     27
                      A                      A                      A
 Frequencies --   1294.9448              1315.1023              1358.9225
 Red. masses --      1.1683                 3.0766                 1.1781
 Frc consts  --      1.1543                 3.1350                 1.2818
 IR Inten    --     31.6906                 0.6458                26.7069

                     28                     29                     30
                      A                      A                      A
 Frequencies --   1367.2804              1420.9243              1457.2428
 Red. masses --      1.3200                 2.0230                 1.6275
 Frc consts  --      1.4539                 2.4065                 2.0363
 IR Inten    --      9.6362                 4.8404                11.9312

                     31                     32                     33
                      A                      A                      A
 Frequencies --   1548.1899              1599.4366              2947.6646
 Red. masses --      2.9578                 4.9678                 1.0791
 Frc consts  --      4.1771                 7.4877                 5.5241
 IR Inten    --      3.2932                 0.3970                17.1590

                     34                     35                     36
                      A                      A                      A
 Frequencies --   3158.4139              3163.7171              3184.6960
 Red. masses --      1.0862                 1.0870                 1.0907
 Frc consts  --      6.3839                 6.4100                 6.5177
 IR Inten    --      5.9770                 9.0670                 9.6205

                     37                     38                     39
                      A                      A                      A
 Frequencies --   3188.5850              3197.0912              3764.0579
 Red. masses --      1.0914                 1.0955                 1.0684
 Frc consts  --      6.5375                 6.5974                 8.9188
 IR Inten    --     14.7436                10.2373                41.4335

 - Thermochemistry -
 -------------------
 Temperature   298.150 Kelvin.  Pressure   1.00000 Atm.
 Atom     1 has atomic number  6 and mass  12.00000

 Molecular mass:   111.04460 amu.
 Principal axes and moments of inertia in atomic units:
                           1         2         3
     Eigenvalues --   394.259171176.986321483.41068
           X            0.99991  -0.01194  -0.00620
           Y            0.01186   0.99983  -0.01419
           Z            0.00637   0.01412   0.99988
 This molecule is an asymmetric top.
 Rotational symmetry number  1.
 Rotational temperatures (Kelvin)      0.21969     0.07359     0.05839
 Rotational constants (GHZ):           4.57755     1.53336     1.21662
 Zero-point vibrational energy     305786.7 (Joules/Mol)
                                   73.08478 (Kcal/Mol)
 Warning -- explicit consideration of  10 degrees of freedom as
           vibrations may cause significant error
 Vibrational temperatures:    114.00   175.83   335.64   354.23   529.94
          (Kelvin)            553.79   649.55   814.93   847.86   892.28
                              992.25  1091.97  1180.87  1267.68  1319.01
                             1325.12  1411.28  1418.73  1431.70  1454.20
                             1500.02  1618.30  1684.98  1721.32  1863.14
                             1892.14  1955.19  1967.21  2044.39  2096.65
                             2227.50  2301.23  4241.03  4544.25  4551.88
                             4582.07  4587.66  4599.90  5415.64

 Zero-point correction=                           0.116468 (Hartree/Particle)
 Thermal correction to Energy=                    0.123933
 Thermal correction to Enthalpy=                  0.124878
 Thermal correction to Gibbs Free Energy=         0.083909
 Sum of electronic and zero-point Energies=           -383.165593
 Sum of electronic and thermal Energies=              -383.158128
 Sum of electronic and thermal Enthalpies=            -383.157183
 Sum of electronic and thermal Free Energies=         -383.198152

                     E (Thermal)             CV                S
                      KCal/Mol        Cal/Mol-Kelvin    Cal/Mol-Kelvin
 Total                   77.769             28.020             86.225
 Electronic               0.000              0.000              1.377
 Translational            0.889              2.981             40.030
 Rotational               0.889              2.981             28.023
 Vibrational             75.992             22.058             16.795
 Vibration     1          0.600              1.963              3.910
 Vibration     2          0.610              1.931              3.065
 Vibration     3          0.654              1.790              1.854
 Vibration     4          0.661              1.769              1.758
 Vibration     5          0.741              1.537              1.087
 Vibration     6          0.754              1.502              1.020
 Vibration     7          0.810              1.358              0.791
 Vibration     8          0.922              1.104              0.511
 Vibration     9          0.947              1.055              0.468
 Vibration    10          0.980              0.989              0.416

 Optimization completed.
    -- Stationary point found.
 Normal termination of Gaussian 16 at Wed Apr  6 23:31:49 2022.
