 Gaussian 16, Revision C.01,
 Gaussian 16:  EM64L-G16RevC.01  3-Jul-2019

 ----------------------------------------------------------------------
 #p B3LYP/cc-PVTZ scf(verytight, maxcycles=1000) opt(calcfc, maxcyc=100
 0) freq(hpmodes) int(grid=ultrafine)
 ----------------------------------------------------------------------

 ------
 Mol_02
 ------
 Symbolic Z-matrix:
 Charge =  0 Multiplicity = 2

 SCF Done:  E(UB3LYP) =  -383.260385604     A.U. after   20 cycles
 SCF Done:  E(UB3LYP) =  -383.269397221     A.U. after   19 cycles
 SCF Done:  E(UB3LYP) =  -383.271865868     A.U. after   19 cycles
 SCF Done:  E(UB3LYP) =  -383.272503170     A.U. after   18 cycles
 SCF Done:  E(UB3LYP) =  -383.272559948     A.U. after   15 cycles
 SCF Done:  E(UB3LYP) =  -383.272562946     A.U. after   12 cycles
 SCF Done:  E(UB3LYP) =  -383.272563232     A.U. after   10 cycles
 Optimization completed.
    -- Stationary point found.
 Normal termination of Gaussian 16 at Sun Apr  3 22:01:20 2022.

 -------------------------------------------------------------------
 #P Geom=AllCheck Guess=TCheck SCRF=Check GenChk UB3LYP/CC-pVTZ Freq
 -------------------------------------------------------------------

 Structure from the checkpoint file:  "Mol_02.chk"
 ------
 Mol_02
 ------
 Charge =  0 Multiplicity = 2

                         Standard orientation:
 ---------------------------------------------------------------------
 Center     Atomic      Atomic             Coordinates (Angstroms)
 Number     Number       Type             X           Y           Z
 ---------------------------------------------------------------------
      1          6           0        1.956865    0.346859   -0.518726
      2          6           0        1.645193   -1.028658   -0.148662
      3          6           0        0.474853   -1.363847    0.407190
      4          6           0       -0.583171   -0.330359    0.610632
      5          6           0       -0.050841    1.093203    0.707940
      6          6           0        1.164037    1.350083   -0.131338
      7          1           0        0.200104    1.292701    1.757759
      8          1           0       -0.865296    1.778180    0.465905
      9          1           0        0.242576   -2.390223    0.654831
     10          1           0        2.389706   -1.791640   -0.338855
     11          8           0       -1.490077   -0.452921   -0.583589
     12          1           0       -1.231379   -0.554826    1.454818
     13          8           0       -2.589509    0.246342   -0.427325
     14          1           0        1.406020    2.376141   -0.376396
     15          1           0        2.853345    0.538614   -1.092958
 ---------------------------------------------------------------------

 SCF Done:  E(UB3LYP) =  -383.272563232     A.U. after    1 cycles

 The electronic state is 2-A.
 Alpha  occ. eigenvalues --  -19.23980 -19.19077 -10.24797 -10.19680 -10.19530
 Alpha  occ. eigenvalues --  -10.19297 -10.18932 -10.18661  -1.18510  -0.89104
 Alpha  occ. eigenvalues --   -0.83477  -0.76818  -0.74595  -0.63620  -0.61609
 Alpha  occ. eigenvalues --   -0.53941  -0.52941  -0.50220  -0.49481  -0.46265
 Alpha  occ. eigenvalues --   -0.44097  -0.43897  -0.42107  -0.41191  -0.35739
 Alpha  occ. eigenvalues --   -0.34908  -0.33516  -0.28029  -0.27670  -0.24287
 Alpha virt. eigenvalues --   -0.05850   0.03050   0.04180   0.05865   0.06274
 Alpha virt. eigenvalues --    0.08451   0.08947   0.10471   0.12266   0.13871
 Alpha virt. eigenvalues --    0.14399   0.16828   0.20169   0.21980   0.24513

  Beta  occ. eigenvalues --  -19.22949 -19.17171 -10.24837 -10.19689 -10.19504
  Beta  occ. eigenvalues --  -10.19301 -10.18926 -10.18657  -1.15787  -0.87860
  Beta  occ. eigenvalues --   -0.81697  -0.76796  -0.73609  -0.63182  -0.61537
  Beta  occ. eigenvalues --   -0.53649  -0.51942  -0.49140  -0.47561  -0.44944
  Beta  occ. eigenvalues --   -0.43719  -0.43340  -0.41055  -0.38444  -0.35563
  Beta  occ. eigenvalues --   -0.34036  -0.33436  -0.26534  -0.24046
  Beta virt. eigenvalues --   -0.10675  -0.05761   0.03084   0.04324   0.05965
  Beta virt. eigenvalues --    0.06303   0.08510   0.08992   0.10644   0.12368
  Beta virt. eigenvalues --    0.14588   0.15579   0.17002   0.20242   0.22052

 Mulliken charges and spin densities:
               1          2
     1  C   -0.121280   0.001929
     2  C   -0.082229  -0.005102
     3  C   -0.177622   0.002851
     4  C    0.114653  -0.016254
     5  C   -0.151547   0.013683
     6  C   -0.112685  -0.002148
     7  H    0.100027  -0.001435
     8  H    0.107652  -0.002329
     9  H    0.118978  -0.000540
    10  H    0.115702   0.000244
    11  O   -0.065672   0.311474
    12  H    0.104718   0.011855
    13  O   -0.183366   0.685310
    14  H    0.121887   0.000533
    15  H    0.110785  -0.000071
 Sum of Mulliken charges =  -0.00000   1.00000

 Dipole moment (field-independent basis, Debye):
    X=              2.5923    Y=              0.0929    Z=              1.5180  Tot=              3.0055
 Quadrupole moment (field-independent basis, Debye-Ang):
   XX=            -51.2368   YY=            -42.8021   ZZ=            -47.5553
   XY=              0.1166   XZ=             -4.4201   YZ=             -0.6548

  Exact polarizability:      88.635      -3.283      79.419      -8.295      -1.430      54.373
 Approx polarizability:     132.262      -7.598     126.516     -14.490      -1.582      85.611

                      1                      2                      3
                      A                      A                      A
 Frequencies --     77.5007               123.8378               212.1933
 Red. masses --      6.7069                 5.1639                 3.4851
 Frc consts  --      0.0237                 0.0467                 0.0925
 IR Inten    --      1.4118                 0.1770                 1.5873

                      4                      5                      6
                      A                      A                      A
 Frequencies --    312.2362               379.4636               467.5307
 Red. masses --      2.8041                 2.8692                 4.6592
 Frc consts  --      0.1611                 0.2434                 0.6000
 IR Inten    --      2.4823                 5.1409                 3.9963

                      7                      8                      9
                      A                      A                      A
 Frequencies --    513.7466               593.3316               613.9147
 Red. masses --      2.7415                 4.8635                 5.8133
 Frc consts  --      0.4263                 1.0088                 1.2909
 IR Inten    --      3.5283                 1.3640                 7.8379

                     10                     11                     12
                      A                      A                      A
 Frequencies --    664.2412               780.2658               803.9229
 Red. masses --      1.5112                 2.3075                 1.6972
 Frc consts  --      0.3928                 0.8277                 0.6463
 IR Inten    --     37.3055                38.0971                15.7705

                     13                     14                     15
                      A                      A                      A
 Frequencies --    851.4722               951.8753               964.5986
 Red. masses --      3.8106                 2.3231                 2.3746
 Frc consts  --      1.6277                 1.2402                 1.3018
 IR Inten    --      3.1254                 9.7320                 2.0272

                     16                     17                     18
                      A                      A                      A
 Frequencies --    976.8052               997.0837              1007.5129
 Red. masses --      2.3914                 1.5026                 2.4975
 Frc consts  --      1.3444                 0.8801                 1.4937
 IR Inten    --      5.6938                 4.1840                 5.1482

                     19                     20                     21
                      A                      A                      A
 Frequencies --   1016.2330              1102.6011              1180.4663
 Red. masses --      1.5382                 1.5632                 6.4480
 Frc consts  --      0.9359                 1.1197                 5.2940
 IR Inten    --      1.0037                 1.4451                 8.0498

                     22                     23                     24
                      A                      A                      A
 Frequencies --   1181.8199              1209.7835              1222.3361
 Red. masses --      1.1410                 1.0999                 1.0922
 Frc consts  --      0.9390                 0.9484                 0.9615
 IR Inten    --      0.3258                 0.8070                 8.0318

                     25                     26                     27
                      A                      A                      A
 Frequencies --   1321.8164              1340.0181              1369.3630
 Red. masses --      1.1786                 2.0997                 1.3101
 Frc consts  --      1.2133                 2.2214                 1.4474
 IR Inten    --     19.3029                 4.9101                 2.1573

                     28                     29                     30
                      A                      A                      A
 Frequencies --   1417.7412              1449.1206              1455.5894
 Red. masses --      1.6164                 1.3004                 1.3543
 Frc consts  --      1.9142                 1.6089                 1.6906
 IR Inten    --      6.4470                13.9357                 3.4924

                     31                     32                     33
                      A                      A                      A
 Frequencies --   1632.3970              1708.5379              2989.5011
 Red. masses --      6.8997                 5.3918                 1.0727
 Frc consts  --     10.8326                 9.2733                 5.6482
 IR Inten    --      7.7420                 3.0902                12.3127

                     34                     35                     36
                      A                      A                      A
 Frequencies --   3067.7671              3091.3215              3158.8490
 Red. masses --      1.0866                 1.0866                 1.0854
 Frc consts  --      6.0253                 6.1181                 6.3811
 IR Inten    --      1.3389                13.1931                 1.6250

                     37                     38                     39
                      A                      A                      A
 Frequencies --   3166.8211              3184.3193              3190.6602
 Red. masses --      1.0870                 1.0955                 1.0975
 Frc consts  --      6.4228                 6.5450                 6.5831
 IR Inten    --      7.9528                23.0005                10.0057

 - Thermochemistry -
 -------------------
 Temperature   298.150 Kelvin.  Pressure   1.00000 Atm.
 Atom     1 has atomic number  6 and mass  12.00000

 Molecular mass:   111.04460 amu.
 Principal axes and moments of inertia in atomic units:
                           1         2         3
     Eigenvalues --   464.508791050.776891288.90278
           X            0.99966  -0.00323  -0.02588
           Y            0.00319   0.99999  -0.00156
           Z            0.02588   0.00148   0.99966
 This molecule is an asymmetric top.
 Rotational symmetry number  1.
 Warning -- assumption of classical behavior for rotation
           may cause significant error
 Rotational temperatures (Kelvin)      0.18646     0.08243     0.06720
 Rotational constants (GHZ):           3.88527     1.71753     1.40022
 Zero-point vibrational energy     309525.3 (Joules/Mol)
                                   73.97833 (Kcal/Mol)
 Warning -- explicit consideration of   9 degrees of freedom as
           vibrations may cause significant error
 Vibrational temperatures:    111.51   178.17   305.30   449.24   545.96
          (Kelvin)            672.67   739.17   853.67   883.29   955.69
                             1122.63  1156.67  1225.08  1369.54  1387.84
                             1405.40  1434.58  1449.59  1462.13  1586.40
                             1698.43  1700.38  1740.61  1758.67  1901.80
                             1927.99  1970.21  2039.81  2084.96  2094.27
                             2348.66  2458.21  4301.23  4413.83  4447.72
                             4544.88  4556.35  4581.53  4590.65

 Zero-point correction=                           0.117892 (Hartree/Particle)
 Thermal correction to Energy=                    0.124982
 Thermal correction to Enthalpy=                  0.125927
 Thermal correction to Gibbs Free Energy=         0.085585
 Sum of electronic and zero-point Energies=           -383.154671
 Sum of electronic and thermal Energies=              -383.147581
 Sum of electronic and thermal Enthalpies=            -383.146637
 Sum of electronic and thermal Free Energies=         -383.186979

                     E (Thermal)             CV                S
                      KCal/Mol        Cal/Mol-Kelvin    Cal/Mol-Kelvin
 Total                   78.428             26.438             84.907
 Electronic               0.000              0.000              1.377
 Translational            0.889              2.981             40.030
 Rotational               0.889              2.981             27.933
 Vibrational             76.650             20.476             15.566
 Vibration     1          0.599              1.964              3.953
 Vibration     2          0.610              1.929              3.040
 Vibration     3          0.643              1.822              2.025
 Vibration     4          0.701              1.650              1.350
 Vibration     5          0.749              1.514              1.041
 Vibration     6          0.825              1.322              0.744
 Vibration     7          0.869              1.220              0.625
 Vibration     8          0.951              1.046              0.461
 Vibration     9          0.973              1.002              0.426

 Optimization completed.
    -- Stationary point found.
 Normal termination of Gaussian 16 at Sun Apr  3 22:19:48 2022.
