 Gaussian 16, Revision B.01,
 Gaussian 16:  ES64L-G16RevB.01 20-Dec-2017

 ----------------------------------------------------------------------
 # opt=(calcfc,ts,noeigentest) freq ub3lyp cc-pvtz+d int=grid=ultrafine
 ----------------------------------------------------------------------

 ----------------------------------------------------
 RcyclohexadienylO2-concerted-OOH-elim-ortho-TS-b3lyp
 ----------------------------------------------------
 Symbolic Z-matrix:
 Charge =  0 Multiplicity = 2

 SCF Done:  E(UB3LYP) =  -383.260686992     A.U. after   30 cycles
 SCF Done:  E(UB3LYP) =  -383.260698938     A.U. after   22 cycles
 SCF Done:  E(UB3LYP) =  -383.261268221     A.U. after   20 cycles
 SCF Done:  E(UB3LYP) =  -383.260338044     A.U. after   21 cycles
 SCF Done:  E(UB3LYP) =  -383.260997364     A.U. after   19 cycles
 SCF Done:  E(UB3LYP) =  -383.259271500     A.U. after   20 cycles
 SCF Done:  E(UB3LYP) =  -383.260775240     A.U. after   17 cycles
 SCF Done:  E(UB3LYP) =  -383.260732417     A.U. after   19 cycles
 SCF Done:  E(UB3LYP) =  -383.260786181     A.U. after   17 cycles
 SCF Done:  E(UB3LYP) =  -383.260825460     A.U. after   18 cycles
 SCF Done:  E(UB3LYP) =  -383.260819520     A.U. after   16 cycles
 SCF Done:  E(UB3LYP) =  -383.260819367     A.U. after   13 cycles
 Optimization completed.
    -- Stationary point found.
 Normal termination of Gaussian 16 at Wed Jul 27 22:24:04 2022.

 ---------------------------------------------------------------------
 #N Geom=AllCheck Guess=TCheck SCRF=Check GenChk UB3LYP/CC-pVTZ+d Freq
 ---------------------------------------------------------------------

 Structure from the checkpoint file:  "RcyclohexadienylO2-concerted-OOH-elim-ortho-TS-b3lyp.chk"
 ----------------------------------------------------
 RcyclohexadienylO2-concerted-OOH-elim-ortho-TS-b3lyp
 ----------------------------------------------------
 Charge =  0 Multiplicity = 2

                         Standard orientation:
 ---------------------------------------------------------------------
 Center     Atomic      Atomic             Coordinates (Angstroms)
 Number     Number       Type             X           Y           Z
 ---------------------------------------------------------------------
      1          6           0       -1.916263   -0.540440   -0.585835
      2          6           0       -1.743770    0.865041   -0.493914
      3          6           0       -0.738017    1.405880    0.288329
      4          6           0        0.154272    0.581742    0.960337
      5          6           0        0.075390   -0.871782    0.825275
      6          6           0       -1.080725   -1.381086    0.076909
      7          1           0        0.282558   -1.420148    1.748245
      8          1           0        1.030694   -1.132813    0.206047
      9          1           0       -0.652106    2.479456    0.388828
     10          1           0       -2.429195    1.518692   -1.016262
     11          8           0        2.179351    0.649136   -0.441894
     12          1           0        0.859653    1.004142    1.658652
     13          8           0        2.366327   -0.576291   -0.591716
     14          1           0       -1.225218   -2.452312    0.025982
     15          1           0       -2.737132   -0.935910   -1.169208
 ---------------------------------------------------------------------

 SCF Done:  E(UB3LYP) =  -383.260819367     A.U. after    1 cycles

 The electronic state is 2-A.
 Alpha  occ. eigenvalues --  -19.21711 -19.21374 -10.20599 -10.19802 -10.19708
 Alpha  occ. eigenvalues --  -10.19405 -10.19151 -10.19092  -1.20913  -0.86820
 Alpha  occ. eigenvalues --   -0.78879  -0.76589  -0.76434  -0.63230  -0.61403
 Alpha  occ. eigenvalues --   -0.53915  -0.50860  -0.49327  -0.48341  -0.48005
 Alpha  occ. eigenvalues --   -0.46061  -0.44129  -0.43297  -0.40059  -0.36491
 Alpha  occ. eigenvalues --   -0.35483  -0.33380  -0.27442  -0.26087  -0.23795
 Alpha virt. eigenvalues --   -0.08986  -0.01588   0.03147   0.06068   0.06376
 Alpha virt. eigenvalues --    0.08587   0.09092   0.09340   0.12138   0.14192
 Alpha virt. eigenvalues --    0.18368   0.20252   0.21408   0.23762   0.24378

  Beta  occ. eigenvalues --  -19.19524 -19.19064 -10.20941 -10.20071 -10.20069
  Beta  occ. eigenvalues --  -10.19322 -10.18977 -10.18973  -1.16608  -0.87167
  Beta  occ. eigenvalues --   -0.77090  -0.76856  -0.72276  -0.63652  -0.61604
  Beta  occ. eigenvalues --   -0.53923  -0.49223  -0.48069  -0.46358  -0.45037
  Beta  occ. eigenvalues --   -0.44140  -0.43188  -0.39737  -0.38608  -0.36577
  Beta  occ. eigenvalues --   -0.35589  -0.33748  -0.27849  -0.19256
  Beta virt. eigenvalues --   -0.08889  -0.07883  -0.02238   0.03111   0.06046
  Beta virt. eigenvalues --    0.06367   0.07909   0.09028   0.09242   0.12073
  Beta virt. eigenvalues --    0.14422   0.18376   0.21167   0.22364   0.23781

 Mulliken charges and spin densities:
               1          2
     1  C   -0.124059   0.076009
     2  C   -0.076135  -0.243057
     3  C   -0.099424   0.109695
     4  C   -0.072715  -0.231306
     5  C   -0.149189   0.046243
     6  C   -0.095999  -0.178314
     7  H    0.106192  -0.018221
     8  H    0.155768  -0.062428
     9  H    0.111473  -0.003474
    10  H    0.114255   0.010226
    11  O   -0.124849   0.766068
    12  H    0.136655   0.007978
    13  O   -0.114786   0.716815
    14  H    0.121182   0.006285
    15  H    0.111629  -0.002521
 Sum of Mulliken charges =  -0.00000   1.00000

 Dipole moment (field-independent basis, Debye):
    X=             -2.6354    Y=             -0.3015    Z=              1.1235  Tot=              2.8807
 Quadrupole moment (field-independent basis, Debye-Ang):
   XX=            -50.9932   YY=            -42.7000   ZZ=            -46.4383
   XY=             -0.3650   XZ=              5.1627   YZ=             -0.3646

  Exact polarizability: 133.714  -0.717  86.657  -0.667  -0.746  62.290
 Approx polarizability: 263.805  -6.039 152.575 -10.239  -0.426 103.719

 ******    1 imaginary frequencies (negative Signs) ******

                      1                      2                      3
                      A                      A                      A
 Frequencies --   -329.8489                77.4220               111.1944
 Red. masses --      2.3894                 7.2835                 5.7402
 Frc consts  --      0.1532                 0.0257                 0.0418
 IR Inten    --    131.5256                 1.5586                 0.2172

                      4                      5                      6
                      A                      A                      A
 Frequencies --    123.1083               236.6692               374.8175
 Red. masses --      7.3488                 4.6709                 2.8173
 Frc consts  --      0.0656                 0.1541                 0.2332
 IR Inten    --      1.8817                 1.2510                 1.3706

                      7                      8                      9
                      A                      A                      A
 Frequencies --    432.6514               582.8818               592.9938
 Red. masses --      3.3699                 2.9118                 3.9348
 Frc consts  --      0.3717                 0.5829                 0.8152
 IR Inten    --      0.2349                 5.1519                11.9625

                     10                     11                     12
                      A                      A                      A
 Frequencies --    605.4823               687.3251               799.9340
 Red. masses --      6.1590                 1.2019                 1.2295
 Frc consts  --      1.3303                 0.3345                 0.4635
 IR Inten    --      0.9151                40.9816                12.9363

                     13                     14                     15
                      A                      A                      A
 Frequencies --    829.5936               894.2920               926.9943
 Red. masses --      2.4216                 1.8634                 2.1158
 Frc consts  --      0.9820                 0.8781                 1.0712
 IR Inten    --    151.2632                70.8323                 8.2121

                     16                     17                     18
                      A                      A                      A
 Frequencies --    981.3280               999.5739              1005.8484
 Red. masses --      1.3231                 1.5588                 1.8346
 Frc consts  --      0.7507                 0.9176                 1.0936
 IR Inten    --      1.0764                15.2742                 4.8952

                     19                     20                     21
                      A                      A                      A
 Frequencies --   1015.4647              1019.3672              1111.3980
 Red. masses --      3.8659                 2.1151                 1.3823
 Frc consts  --      2.3487                 1.2949                 1.0060
 IR Inten    --     22.1435                 8.0253               138.0038

                     22                     23                     24
                      A                      A                      A
 Frequencies --   1163.8324              1183.9519              1205.3364
 Red. masses --      1.2247                 1.0824                 1.1277
 Frc consts  --      0.9774                 0.8939                 0.9653
 IR Inten    --     13.8740                 1.2346                 6.6282

                     25                     26                     27
                      A                      A                      A
 Frequencies --   1341.1150              1356.6363              1377.5680
 Red. masses --      2.3671                 3.5143                 1.2522
 Frc consts  --      2.5084                 3.8108                 1.4000
 IR Inten    --    429.4672                 2.8773                10.3413

                     28                     29                     30
                      A                      A                      A
 Frequencies --   1406.7579              1459.2391              1483.3767
 Red. masses --      1.4914                 2.1675                 1.8130
 Frc consts  --      1.7389                 2.7193                 2.3505
 IR Inten    --     86.7180                22.7355                10.9501

                     31                     32                     33
                      A                      A                      A
 Frequencies --   1544.1480              1620.2798              2047.3851
 Red. masses --      3.1137                 4.0874                 1.1154
 Frc consts  --      4.3742                 6.3224                 2.7547
 IR Inten    --      0.6723                14.3411                53.4502

                     34                     35                     36
                      A                      A                      A
 Frequencies --   3035.6460              3164.0595              3172.3181
 Red. masses --      1.0819                 1.0853                 1.0871
 Frc consts  --      5.8739                 6.4014                 6.4458
 IR Inten    --      7.6224                 3.2013                 1.5531

                     37                     38                     39
                      A                      A                      A
 Frequencies --   3182.2871              3191.7973              3212.6344
 Red. masses --      1.0935                 1.0957                 1.0928
 Frc consts  --      6.5246                 6.5768                 6.6455
 IR Inten    --     22.6376                12.1364                 4.3969

 - Thermochemistry -
 -------------------
 Temperature   298.150 Kelvin.  Pressure   1.00000 Atm.
 Atom     1 has atomic number  6 and mass  12.00000

 Molecular mass:   111.04460 amu.
 Principal axes and moments of inertia in atomic units:
                           1         2         3
     Eigenvalues --   529.985141173.552111387.26432
           X            0.99953  -0.00180   0.03071
           Y            0.00212   0.99994  -0.01039
           Z           -0.03069   0.01045   0.99947
 This molecule is an asymmetric top.
 Rotational symmetry number  1.
 Warning -- assumption of classical behavior for rotation
           may cause significant error
 Rotational temperatures (Kelvin)      0.16343     0.07380     0.06244
 Rotational constants (GHZ):           3.40527     1.53784     1.30094
    1 imaginary frequencies ignored.
 Zero-point vibrational energy     296414.9 (Joules/Mol)
                                   70.84487 (Kcal/Mol)
 Warning -- explicit consideration of   9 degrees of freedom as
           vibrations may cause significant error
 Vibrational temperatures:    111.39   159.98   177.13   340.51   539.28
          (Kelvin)            622.49   838.64   853.19   871.15   988.91
                             1150.93  1193.60  1286.69  1333.74  1411.91
                             1438.16  1447.19  1461.03  1466.64  1599.05
                             1674.50  1703.44  1734.21  1929.57  1951.90
                             1982.01  2024.01  2099.52  2134.25  2221.68
                             2331.22  2945.73  4367.62  4552.38  4564.26
                             4578.60  4592.28  4622.26

 Zero-point correction=                           0.112898 (Hartree/Particle)
 Thermal correction to Energy=                    0.120206
 Thermal correction to Enthalpy=                  0.121150
 Thermal correction to Gibbs Free Energy=         0.079914
 Sum of electronic and zero-point Energies=           -383.147921
 Sum of electronic and thermal Energies=              -383.140614
 Sum of electronic and thermal Enthalpies=            -383.139669
 Sum of electronic and thermal Free Energies=         -383.180906

                     E (Thermal)             CV                S
                      KCal/Mol        Cal/Mol-Kelvin    Cal/Mol-Kelvin
 Total                   75.430             26.258             86.789
 Electronic               0.000              0.000              1.377
 Translational            0.889              2.981             40.030
 Rotational               0.889              2.981             28.247
 Vibrational             73.653             20.296             17.135
 Vibration     1          0.599              1.964              3.955
 Vibration     2          0.607              1.940              3.248
 Vibration     3          0.610              1.930              3.051
 Vibration     4          0.656              1.785              1.828
 Vibration     5          0.746              1.524              1.060
 Vibration     6          0.794              1.399              0.850
 Vibration     7          0.940              1.068              0.480
 Vibration     8          0.951              1.047              0.462
 Vibration     9          0.964              1.020              0.440

                           ! Non-Optimized Parameters !
 Normal termination of Gaussian 16 at Wed Jul 27 22:31:29 2022.
