 Gaussian 16, Revision B.01,
 Gaussian 16:  ES64L-G16RevB.01 20-Dec-2017

 ----------------------------------------------------------------------
 # opt=(ts,noeigentest,calcfc) freq ub3lyp cc-pvtz+d int=grid=ultrafine
 ----------------------------------------------------------------------

 ----------------------------
 QOOH-OOH-Elim-ortho-TS-b3lyp
 ----------------------------
 Symbolic Z-matrix:
 Charge =  0 Multiplicity = 2

 SCF Done:  E(UB3LYP) =  -383.272607507     A.U. after   19 cycles
 SCF Done:  E(UB3LYP) =  -383.272386136     A.U. after   16 cycles
 SCF Done:  E(UB3LYP) =  -383.272386368     A.U. after   10 cycles
 Optimization completed.
    -- Stationary point found.
 Normal termination of Gaussian 16 at Sat Jul 30 13:05:15 2022.

 ---------------------------------------------------------------------
 #N Geom=AllCheck Guess=TCheck SCRF=Check GenChk UB3LYP/CC-pVTZ+d Freq
 ---------------------------------------------------------------------

 Structure from the checkpoint file:  "QOOH-OOH-Elim-ortho-TS-b3lyp.chk"
 ----------------------------
 QOOH-OOH-Elim-ortho-TS-b3lyp
 ----------------------------
 Charge =  0 Multiplicity = 2

                         Standard orientation:
 ---------------------------------------------------------------------
 Center     Atomic      Atomic             Coordinates (Angstroms)
 Number     Number       Type             X           Y           Z
 ---------------------------------------------------------------------
      1          6           0        2.125538    0.317637   -0.439337
      2          6           0        1.753148   -1.013855   -0.192889
      3          6           0        0.551413   -1.304265    0.400823
      4          6           0       -0.388931   -0.257113    0.701808
      5          6           0        0.071230    1.096344    0.545220
      6          6           0        1.280295    1.364514   -0.051183
      7          1           0       -0.575937    1.902832    0.862965
      8          1           0        0.265764   -2.327483    0.600119
      9          1           0        2.431758   -1.814259   -0.457002
     10          8           0       -1.608256   -0.477850   -0.596988
     11          1           0       -1.107861   -0.448549    1.487497
     12          8           0       -2.802062    0.170289   -0.210945
     13          1           0       -2.752171    1.004793   -0.697993
     14          1           0        3.074573    0.534362   -0.910113
     15          1           0        1.590261    2.389220   -0.208657
 ---------------------------------------------------------------------

 SCF Done:  E(UB3LYP) =  -383.272386368     A.U. after    1 cycles

 The electronic state is 2-A.
 Alpha  occ. eigenvalues --  -19.18267 -19.17689 -10.21997 -10.19554 -10.19246
 Alpha  occ. eigenvalues --  -10.19014 -10.18705 -10.18695  -1.11206  -0.88113
 Alpha  occ. eigenvalues --   -0.84552  -0.76344  -0.75487  -0.62431  -0.61480
 Alpha  occ. eigenvalues --   -0.53749  -0.51819  -0.48327  -0.46530  -0.44462
 Alpha  occ. eigenvalues --   -0.43711  -0.43418  -0.41806  -0.37206  -0.35784
 Alpha  occ. eigenvalues --   -0.35392  -0.29135  -0.28470  -0.26667  -0.21124
 Alpha virt. eigenvalues --   -0.02337   0.00377   0.02796   0.04262   0.06779
 Alpha virt. eigenvalues --    0.06912   0.09108   0.09639   0.10421   0.12446
 Alpha virt. eigenvalues --    0.13641   0.21206   0.22688   0.24799   0.24921

  Beta  occ. eigenvalues --  -19.18080 -19.16520 -10.22178 -10.19059 -10.18914
  Beta  occ. eigenvalues --  -10.18887 -10.18802 -10.18602  -1.09981  -0.87264
  Beta  occ. eigenvalues --   -0.83037  -0.75942  -0.74669  -0.61900  -0.61116
  Beta  occ. eigenvalues --   -0.53554  -0.51249  -0.47745  -0.46253  -0.43633
  Beta  occ. eigenvalues --   -0.43343  -0.43106  -0.39679  -0.36611  -0.35205
  Beta  occ. eigenvalues --   -0.34560  -0.27528  -0.26700  -0.25499
  Beta virt. eigenvalues --   -0.12141  -0.01217   0.02202   0.03053   0.04490
  Beta virt. eigenvalues --    0.06810   0.07197   0.09668   0.09751   0.10594
  Beta virt. eigenvalues --    0.12581   0.14748   0.21345   0.22821   0.24895

 Mulliken charges and spin densities:
               1          2
     1  C   -0.093130   0.340096
     2  C   -0.099047  -0.122154
     3  C   -0.116848   0.282631
     4  C    0.047959  -0.091817
     5  C   -0.126086   0.298123
     6  C   -0.102908  -0.130300
     7  H    0.116968  -0.010557
     8  H    0.114603  -0.009651
     9  H    0.111761   0.004030
    10  O   -0.222682   0.367012
    11  H    0.132488   0.021895
    12  O   -0.211358   0.060938
    13  H    0.226595  -0.001053
    14  H    0.110629  -0.013633
    15  H    0.111056   0.004438
 Sum of Mulliken charges =  -0.00000   1.00000

 Dipole moment (field-independent basis, Debye):
    X=              1.6517    Y=              1.5482    Z=              0.2724  Tot=              2.2802
 Quadrupole moment (field-independent basis, Debye-Ang):
   XX=            -47.1263   YY=            -41.3984   ZZ=            -48.0625
   XY=             -4.7565   XZ=             -1.9950   YZ=             -2.1052

  Exact polarizability: 120.877  -1.455  83.049  -5.514  -1.110  53.111
 Approx polarizability: 196.828   1.366 133.879 -11.705  -0.479  87.390

 ******    1 imaginary frequencies (negative Signs) ******

                      1                      2                      3
                      A                      A                      A
 Frequencies --   -560.2710                63.9930               121.1052
 Red. masses --     11.0245                 5.1348                 5.7438
 Frc consts  --      2.0389                 0.0124                 0.0496
 IR Inten    --     71.5548                 4.0330                 2.4348

                      4                      5                      6
                      A                      A                      A
 Frequencies --    178.6775               321.9084               383.9804
 Red. masses --      4.5421                 5.8063                 2.9104
 Frc consts  --      0.0854                 0.3545                 0.2528
 IR Inten    --      4.1032                 0.8953                19.4755

                      7                      8                      9
                      A                      A                      A
 Frequencies --    405.0602               421.8122               604.0396
 Red. masses --      1.2886                 2.3512                 6.0872
 Frc consts  --      0.1246                 0.2465                 1.3086
 IR Inten    --     77.1189                23.4537                 1.4289

                     10                     11                     12
                      A                      A                      A
 Frequencies --    607.5185               654.1512               721.0996
 Red. masses --      5.5174                 1.9365                 1.6456
 Frc consts  --      1.1998                 0.4882                 0.5042
 IR Inten    --      1.6136                26.9499                43.7892

                     13                     14                     15
                      A                      A                      A
 Frequencies --    810.5345               881.2507               918.7992
 Red. masses --      1.2999                 1.5022                 4.8332
 Frc consts  --      0.5032                 0.6873                 2.4039
 IR Inten    --      0.3943                18.0466               129.0179

                     16                     17                     18
                      A                      A                      A
 Frequencies --    952.3258               981.7518               995.4800
 Red. masses --      5.7562                 1.3505                 1.3207
 Frc consts  --      3.0758                 0.7669                 0.7711
 IR Inten    --     41.8894                 0.9875                 0.1980

                     19                     20                     21
                      A                      A                      A
 Frequencies --   1020.9738              1023.2535              1050.5258
 Red. masses --      5.9492                 2.2598                 1.7643
 Frc consts  --      3.6537                 1.3941                 1.1472
 IR Inten    --      0.3829                 0.8761                 4.1902

                     22                     23                     24
                      A                      A                      A
 Frequencies --   1103.8248              1165.2621              1176.3980
 Red. masses --      1.1337                 1.2703                 1.0855
 Frc consts  --      0.8139                 1.0163                 0.8851
 IR Inten    --     10.3321                 0.8700                 0.2369

                     25                     26                     27
                      A                      A                      A
 Frequencies --   1198.5862              1326.6038              1364.9434
 Red. masses --      1.1596                 4.7611                 1.1076
 Frc consts  --      0.9815                 4.9368                 1.2157
 IR Inten    --      0.4511                 0.5772                39.9635

                     28                     29                     30
                      A                      A                      A
 Frequencies --   1381.5530              1478.2204              1487.3568
 Red. masses --      1.2578                 1.7374                 2.2336
 Frc consts  --      1.4144                 2.2368                 2.9114
 IR Inten    --      0.0470                 9.3788                 7.1317

                     31                     32                     33
                      A                      A                      A
 Frequencies --   1558.1038              1597.8141              3152.7484
 Red. masses --      3.3481                 4.5534                 1.0879
 Frc consts  --      4.7890                 6.8492                 6.3711
 IR Inten    --      1.6204                17.2752                 1.9751

                     34                     35                     36
                      A                      A                      A
 Frequencies --   3164.1465              3169.4935              3181.9021
 Red. masses --      1.0858                 1.0871                 1.0921
 Frc consts  --      6.4051                 6.4341                 6.5143
 IR Inten    --      3.2535                 3.3529                16.7376

                     37                     38                     39
                      A                      A                      A
 Frequencies --   3189.5294              3196.1885              3723.3766
 Red. masses --      1.0931                 1.0968                 1.0686
 Frc consts  --      6.5519                 6.6017                 8.7283
 IR Inten    --     20.8413                 8.0894                37.5841

 - Thermochemistry -
 -------------------
 Temperature   298.150 Kelvin.  Pressure   1.00000 Atm.
 Atom     1 has atomic number  6 and mass  12.00000

 Molecular mass:   111.04460 amu.
 Principal axes and moments of inertia in atomic units:
                           1         2         3
     Eigenvalues --   431.159101199.999261449.41283
           X            0.99980  -0.01379  -0.01472
           Y            0.01354   0.99976  -0.01743
           Z            0.01496   0.01722   0.99974
 This molecule is an asymmetric top.
 Rotational symmetry number  1.
 Rotational temperatures (Kelvin)      0.20089     0.07218     0.05976
 Rotational constants (GHZ):           4.18579     1.50395     1.24515
    1 imaginary frequencies ignored.
 Zero-point vibrational energy     303458.5 (Joules/Mol)
                                   72.52831 (Kcal/Mol)
 Warning -- explicit consideration of   9 degrees of freedom as
           vibrations may cause significant error
 Vibrational temperatures:     92.07   174.24   257.08   463.15   552.46
          (Kelvin)            582.79   606.89   869.08   874.08   941.18
                             1037.50  1166.18  1267.92  1321.95  1370.18
                             1412.52  1432.27  1468.95  1472.23  1511.47
                             1588.16  1676.55  1692.57  1724.50  1908.69
                             1963.85  1987.75  2126.83  2139.97  2241.76
                             2298.90  4536.10  4552.50  4560.19  4578.05
                             4589.02  4598.60  5357.11

 Zero-point correction=                           0.115581 (Hartree/Particle)
 Thermal correction to Energy=                    0.122898
 Thermal correction to Enthalpy=                  0.123843
 Thermal correction to Gibbs Free Energy=         0.082843
 Sum of electronic and zero-point Energies=           -383.156805
 Sum of electronic and thermal Energies=              -383.149488
 Sum of electronic and thermal Enthalpies=            -383.148544
 Sum of electronic and thermal Free Energies=         -383.189543

                     E (Thermal)             CV                S
                      KCal/Mol        Cal/Mol-Kelvin    Cal/Mol-Kelvin
 Total                   77.120             26.951             86.290
 Electronic               0.000              0.000              1.377
 Translational            0.889              2.981             40.030
 Rotational               0.889              2.981             28.108
 Vibrational             75.342             20.990             16.775
 Vibration     1          0.597              1.971              4.330
 Vibration     2          0.609              1.932              3.083
 Vibration     3          0.629              1.869              2.342
 Vibration     4          0.707              1.632              1.300
 Vibration     5          0.753              1.504              1.023
 Vibration     6          0.770              1.459              0.944
 Vibration     7          0.784              1.423              0.886
 Vibration     8          0.963              1.023              0.443
 Vibration     9          0.966              1.016              0.437

 Optimization completed.
    -- Stationary point found.
 Normal termination of Gaussian 16 at Sat Jul 30 13:13:16 2022.
