 Gaussian 16, Revision B.01,
 Gaussian 16:  ES64L-G16RevB.01 20-Dec-2017

 ----------------------------------------------------------------------
 # opt=(calcfc,ts,modredundant,noeigentest) freq ub3lyp cc-pvtz+d int(g
 rid=ultrafine)
 ----------------------------------------------------------------------

 ----------------------------------------------
 RcyclohexadienylO2-H-tranfer-ortho-TS-b3lyp-F3
 ----------------------------------------------
 Symbolic Z-matrix:
 Charge =  0 Multiplicity = 2

 SCF Done:  E(UB3LYP) =  -383.217628366     A.U. after   23 cycles
 SCF Done:  E(UB3LYP) =  -383.227056972     A.U. after   20 cycles
 SCF Done:  E(UB3LYP) =  -383.227267000     A.U. after   17 cycles
 SCF Done:  E(UB3LYP) =  -383.227214286     A.U. after   15 cycles
 SCF Done:  E(UB3LYP) =  -383.227295058     A.U. after   18 cycles
 SCF Done:  E(UB3LYP) =  -383.227298044     A.U. after   14 cycles
 SCF Done:  E(UB3LYP) =  -383.227298247     A.U. after   12 cycles
 SCF Done:  E(UB3LYP) =  -383.227298247     A.U. after   12 cycles
 SCF Done:  E(UB3LYP) =  -383.227298350     A.U. after   11 cycles
 Optimization completed.
    -- Stationary point found.
 Normal termination of Gaussian 16 at Sun Jul 31 00:53:33 2022.

 ---------------------------------------------------------------------
 #N Geom=AllCheck Guess=TCheck SCRF=Check GenChk UB3LYP/CC-pVTZ+d Freq
 ---------------------------------------------------------------------

 Structure from the checkpoint file:  "RcyclohexadienylO2-H-tranfer-ortho-TS-b3lyp-F3.chk"
 ----------------------------------------------
 RcyclohexadienylO2-H-tranfer-ortho-TS-b3lyp-F3
 ----------------------------------------------
 Charge =  0 Multiplicity = 2

                         Standard orientation:
 ---------------------------------------------------------------------
 Center     Atomic      Atomic             Coordinates (Angstroms)
 Number     Number       Type             X           Y           Z
 ---------------------------------------------------------------------
      1          6           0        2.039109   -0.170311    0.264779
      2          6           0        1.459844    1.148259    0.238985
      3          6           0        0.210315    1.358437   -0.208726
      4          6           0       -0.663977    0.250077   -0.742509
      5          6           0       -0.094025   -1.147665   -0.388138
      6          6           0        1.294520   -1.264931   -0.068494
      7          1           0       -0.527346   -1.965046   -0.959297
      8          1           0       -0.821505   -1.095132    0.674189
      9          1           0       -0.222812    2.350635   -0.217540
     10          1           0        2.059142    1.982964    0.579788
     11          8           0       -1.928004    0.251190   -0.233245
     12          1           0       -0.788689    0.385322   -1.825738
     13          8           0       -1.821466   -0.272379    1.067373
     14          1           0        1.746741   -2.248614   -0.051809
     15          1           0        3.075517   -0.283816    0.551998
 ---------------------------------------------------------------------

 SCF Done:  E(UB3LYP) =  -383.227298350     A.U. after    1 cycles

 The electronic state is 2-A.
 Alpha  occ. eigenvalues --  -19.19839 -19.17101 -10.24979 -10.20440 -10.20320
 Alpha  occ. eigenvalues --  -10.20119 -10.19818 -10.19586  -1.14512  -0.89331
 Alpha  occ. eigenvalues --   -0.85811  -0.77461  -0.74969  -0.63167  -0.62684
 Alpha  occ. eigenvalues --   -0.54194  -0.52925  -0.50941  -0.48990  -0.46733
 Alpha  occ. eigenvalues --   -0.44243  -0.42378  -0.40468  -0.38131  -0.36183
 Alpha  occ. eigenvalues --   -0.35744  -0.33363  -0.28576  -0.25166  -0.22450
 Alpha virt. eigenvalues --   -0.05661   0.02936   0.04083   0.04805   0.06060
 Alpha virt. eigenvalues --    0.06713   0.08453   0.09752   0.11566   0.13378
 Alpha virt. eigenvalues --    0.16986   0.19941   0.20694   0.22395   0.24749

  Beta  occ. eigenvalues --  -19.19490 -19.15950 -10.25008 -10.20531 -10.19999
  Beta  occ. eigenvalues --  -10.19743 -10.19675 -10.19495  -1.13330  -0.87721
  Beta  occ. eigenvalues --   -0.84929  -0.77048  -0.74002  -0.62727  -0.62138
  Beta  occ. eigenvalues --   -0.53871  -0.51934  -0.50348  -0.48281  -0.46310
  Beta  occ. eigenvalues --   -0.44103  -0.40707  -0.39786  -0.37480  -0.35481
  Beta  occ. eigenvalues --   -0.34144  -0.32325  -0.26415  -0.22835
  Beta virt. eigenvalues --   -0.13962  -0.04686   0.03017   0.04937   0.05255
  Beta virt. eigenvalues --    0.06109   0.07197   0.08647   0.09898   0.11665
  Beta virt. eigenvalues --    0.14289   0.17344   0.20312   0.21024   0.22577

 Mulliken charges and spin densities:
               1          2
     1  C   -0.091500   0.290448
     2  C   -0.104445  -0.091707
     3  C   -0.122248   0.211425
     4  C    0.126893  -0.006929
     5  C   -0.165862   0.278866
     6  C   -0.121473  -0.130656
     7  H    0.110471  -0.007724
     8  H    0.174370  -0.039078
     9  H    0.120124  -0.005934
    10  H    0.116658   0.003124
    11  O   -0.127025   0.098654
    12  H    0.093418   0.013866
    13  O   -0.253545   0.392757
    14  H    0.127779   0.004290
    15  H    0.116384  -0.011402
 Sum of Mulliken charges =  -0.00000   1.00000

 Dipole moment (field-independent basis, Debye):
    X=              3.3381    Y=             -0.2024    Z=             -1.5009  Tot=              3.6656
 Quadrupole moment (field-independent basis, Debye-Ang):
   XX=            -50.7085   YY=            -42.1165   ZZ=            -48.4810
   XY=             -0.4019   XZ=              4.1770   YZ=              0.5797

  Exact polarizability: 117.726  -1.968  81.124  -1.344   0.856  56.843
 Approx polarizability: 209.241  -7.926 130.434  -9.354  -1.937  99.248

 ******    1 imaginary frequencies (negative Signs) ******

                      1                      2                      3
                      A                      A                      A
 Frequencies --  -2046.9106                66.3417               191.2526
 Red. masses --      1.1707                 4.3414                 6.0177
 Frc consts  --      2.8900                 0.0113                 0.1297
 IR Inten    --   1394.2998                 4.3118                 0.2714

                      4                      5                      6
                      A                      A                      A
 Frequencies --    342.8088               397.4710               486.1543
 Red. masses --      3.9388                 3.1129                 5.2088
 Frc consts  --      0.2727                 0.2897                 0.7253
 IR Inten    --      0.4984                 2.6172                 1.1441

                      7                      8                      9
                      A                      A                      A
 Frequencies --    503.9823               585.9483               647.1014
 Red. masses --      3.3588                 5.7588                 1.5829
 Frc consts  --      0.5026                 1.1649                 0.3905
 IR Inten    --     10.8289                 0.0599                31.6860

                     10                     11                     12
                      A                      A                      A
 Frequencies --    661.5381               746.1241               791.7509
 Red. masses --      3.9832                 3.2155                 1.3403
 Frc consts  --      1.0270                 1.0547                 0.4950
 IR Inten    --      4.1504                16.1288                 4.6014

                     13                     14                     15
                      A                      A                      A
 Frequencies --    827.0686               891.1354               933.3106
 Red. masses --      1.8053                 5.9250                 3.1605
 Frc consts  --      0.7276                 2.7722                 1.6220
 IR Inten    --     17.4158                99.3191                 8.3399

                     16                     17                     18
                      A                      A                      A
 Frequencies --    974.1660               980.6267               989.1944
 Red. masses --      2.3117                 1.8153                 1.8014
 Frc consts  --      1.2926                 1.0285                 1.0385
 IR Inten    --      9.2992                 3.7526                 3.1800

                     19                     20                     21
                      A                      A                      A
 Frequencies --   1008.3676              1034.0094              1099.7406
 Red. masses --      1.7018                 2.2634                 1.5901
 Frc consts  --      1.0195                 1.4258                 1.1331
 IR Inten    --      1.3851                12.5856                 2.2336

                     22                     23                     24
                      A                      A                      A
 Frequencies --   1165.1320              1178.2550              1198.5344
 Red. masses --      3.1074                 1.0764                 1.2280
 Frc consts  --      2.4854                 0.8804                 1.0393
 IR Inten    --      3.7046                 0.2866                 1.9686

                     25                     26                     27
                      A                      A                      A
 Frequencies --   1244.5535              1278.5771              1354.4702
 Red. masses --      1.1424                 1.5369                 1.5540
 Frc consts  --      1.0425                 1.4803                 1.6797
 IR Inten    --     11.9144                14.9360                 1.8503

                     28                     29                     30
                      A                      A                      A
 Frequencies --   1371.4373              1422.8318              1475.1149
 Red. masses --      1.2804                 1.7003                 1.9619
 Frc consts  --      1.4189                 2.0281                 2.5152
 IR Inten    --      1.6918                 2.9194                18.7264

                     31                     32                     33
                      A                      A                      A
 Frequencies --   1512.5722              1649.2854              1732.9508
 Red. masses --      3.7261                 5.0803                 1.0508
 Frc consts  --      5.0227                 8.1420                 1.8593
 IR Inten    --     30.2246                 9.0641                20.0734

                     34                     35                     36
                      A                      A                      A
 Frequencies --   2968.6544              3110.8531              3158.3046
 Red. masses --      1.0803                 1.0856                 1.0850
 Frc consts  --      5.6095                 6.1900                 6.3763
 IR Inten    --     24.5206                10.6914                 2.7743

                     37                     38                     39
                      A                      A                      A
 Frequencies --   3165.1891              3178.3776              3190.1904
 Red. masses --      1.0878                 1.0944                 1.0959
 Frc consts  --      6.4209                 6.5139                 6.5711
 IR Inten    --      5.8474                16.6304                13.7356

 - Thermochemistry -
 -------------------
 Temperature   298.150 Kelvin.  Pressure   1.00000 Atm.
 Atom     1 has atomic number  6 and mass  12.00000

 Molecular mass:   111.04460 amu.
 Principal axes and moments of inertia in atomic units:
                           1         2         3
     Eigenvalues --   468.45396 954.905231173.78011
           X            0.99978   0.00207   0.02105
           Y           -0.00243   0.99985   0.01711
           Z           -0.02101  -0.01715   0.99963
 This molecule is an asymmetric top.
 Rotational symmetry number  1.
 Warning -- assumption of classical behavior for rotation
           may cause significant error
 Rotational temperatures (Kelvin)      0.18489     0.09070     0.07379
 Rotational constants (GHZ):           3.85255     1.88997     1.53755
    1 imaginary frequencies ignored.
 Zero-point vibrational energy     296155.8 (Joules/Mol)
                                   70.78293 (Kcal/Mol)
 Warning -- explicit consideration of   7 degrees of freedom as
           vibrations may cause significant error
 Vibrational temperatures:     95.45   275.17   493.23   571.87   699.47
          (Kelvin)            725.12   843.05   931.03   951.81  1073.51
                             1139.15  1189.97  1282.15  1342.83  1401.61
                             1410.90  1423.23  1450.82  1487.71  1582.28
                             1676.37  1695.25  1724.42  1790.63  1839.59
                             1948.78  1973.19  2047.14  2122.36  2176.25
                             2372.95  2493.33  4271.23  4475.82  4544.10
                             4554.00  4572.98  4589.97

 Zero-point correction=                           0.112800 (Hartree/Particle)
 Thermal correction to Energy=                    0.119259
 Thermal correction to Enthalpy=                  0.120203
 Thermal correction to Gibbs Free Energy=         0.081192
 Sum of electronic and zero-point Energies=           -383.114499
 Sum of electronic and thermal Energies=              -383.108039
 Sum of electronic and thermal Enthalpies=            -383.107095
 Sum of electronic and thermal Free Energies=         -383.146106

                     E (Thermal)             CV                S
                      KCal/Mol        Cal/Mol-Kelvin    Cal/Mol-Kelvin
 Total                   74.836             24.998             82.106
 Electronic               0.000              0.000              1.377
 Translational            0.889              2.981             40.030
 Rotational               0.889              2.981             27.753
 Vibrational             73.059             19.037             12.945
 Vibration     1          0.598              1.970              4.259
 Vibration     2          0.634              1.852              2.216
 Vibration     3          0.722              1.590              1.199
 Vibration     4          0.764              1.476              0.972
 Vibration     5          0.842              1.281              0.694
 Vibration     6          0.859              1.241              0.648
 Vibration     7          0.943              1.062              0.474

 Optimization completed.
    -- Stationary point found.
 Normal termination of Gaussian 16 at Sun Jul 31 01:01:16 2022.
