 Gaussian 16, Revision B.01,
 Gaussian 16:  ES64L-G16RevB.01 20-Dec-2017

 ----------------------------------------------------------------------
 # opt=(ts,noeigentest,calcfc) freq ub3lyp cc-pvtz+d int=grid=ultrafine
 ----------------------------------------------------------------------

 ---------------------------
 QOOH-OH-Elim-ortho-TS-b3lyp
 ---------------------------
 Symbolic Z-matrix:
 Charge =  0 Multiplicity = 2

 SCF Done:  E(UB3LYP) =  -383.234708266     A.U. after   23 cycles
 SCF Done:  E(UB3LYP) =  -383.245831690     A.U. after   19 cycles
 SCF Done:  E(UB3LYP) =  -383.247702361     A.U. after   18 cycles
 SCF Done:  E(UB3LYP) =  -383.247887959     A.U. after   18 cycles
 SCF Done:  E(UB3LYP) =  -383.247899102     A.U. after   16 cycles
 SCF Done:  E(UB3LYP) =  -383.247899036     A.U. after   16 cycles
 SCF Done:  E(UB3LYP) =  -383.247900094     A.U. after   14 cycles
 SCF Done:  E(UB3LYP) =  -383.247900130     A.U. after    9 cycles
 Optimization completed.
    -- Stationary point found.
 Normal termination of Gaussian 16 at Sat Jul 30 13:11:43 2022.

 ---------------------------------------------------------------------
 #N Geom=AllCheck Guess=TCheck SCRF=Check GenChk UB3LYP/CC-pVTZ+d Freq
 ---------------------------------------------------------------------

 Structure from the checkpoint file:  "QOOH-OH-Elim-ortho-TS-b3lyp.chk"
 ---------------------------
 QOOH-OH-Elim-ortho-TS-b3lyp
 ---------------------------
 Charge =  0 Multiplicity = 2

                         Standard orientation:
 ---------------------------------------------------------------------
 Center     Atomic      Atomic             Coordinates (Angstroms)
 Number     Number       Type             X           Y           Z
 ---------------------------------------------------------------------
      1          6           0        1.971223    0.271571   -0.534941
      2          6           0        1.599369   -1.020813   -0.254460
      3          6           0        0.423075   -1.278747    0.463847
      4          6           0       -0.501938   -0.168307    0.813278
      5          6           0        0.055888    1.201676    0.619782
      6          6           0        1.200782    1.387301   -0.067711
      7          1           0       -0.498646    2.036417    1.024495
      8          1           0        0.153516   -2.276369    0.769331
      9          1           0        2.222843   -1.848009   -0.565452
     10          8           0       -1.163651   -0.700903   -0.310159
     11          1           0       -1.080550   -0.281396    1.730889
     12          8           0       -2.733639    0.295262   -0.493029
     13          1           0       -2.567442    0.412720   -1.438848
     14          1           0        2.881688    0.459266   -1.088300
     15          1           0        1.576515    2.386413   -0.245391
 ---------------------------------------------------------------------

 SCF Done:  E(UB3LYP) =  -383.247900130     A.U. after    1 cycles

 The electronic state is 2-A.
 Alpha  occ. eigenvalues --  -19.15349 -19.12566 -10.24129 -10.23305 -10.21165
 Alpha  occ. eigenvalues --  -10.19865 -10.19810 -10.19469  -1.02705  -0.94335
 Alpha  occ. eigenvalues --   -0.85404  -0.77582  -0.73345  -0.63456  -0.62072
 Alpha  occ. eigenvalues --   -0.54768  -0.49743  -0.48660  -0.46723  -0.45005
 Alpha  occ. eigenvalues --   -0.42736  -0.41214  -0.38651  -0.37834  -0.36761
 Alpha  occ. eigenvalues --   -0.33915  -0.29558  -0.28154  -0.26249  -0.22350
 Alpha virt. eigenvalues --   -0.08701  -0.00571   0.02973   0.06028   0.06189
 Alpha virt. eigenvalues --    0.06394   0.08289   0.09023   0.09498   0.12047
 Alpha virt. eigenvalues --    0.16855   0.21281   0.21797   0.23270   0.24275

  Beta  occ. eigenvalues --  -19.15552 -19.10854 -10.24194 -10.22889 -10.20718
  Beta  occ. eigenvalues --  -10.20051 -10.19644 -10.19532  -1.02637  -0.90442
  Beta  occ. eigenvalues --   -0.84999  -0.77282  -0.72700  -0.63116  -0.61866
  Beta  occ. eigenvalues --   -0.54648  -0.49500  -0.48389  -0.46478  -0.44930
  Beta  occ. eigenvalues --   -0.41906  -0.40344  -0.38006  -0.37585  -0.35790
  Beta  occ. eigenvalues --   -0.31432  -0.28741  -0.25965  -0.25276
  Beta virt. eigenvalues --   -0.12608  -0.06016   0.00865   0.03025   0.06101
  Beta virt. eigenvalues --    0.06286   0.06947   0.08846   0.09214   0.09609
  Beta virt. eigenvalues --    0.12155   0.17306   0.21464   0.21966   0.23521

 Mulliken charges and spin densities:
               1          2
     1  C   -0.061771   0.300737
     2  C   -0.118359  -0.157887
     3  C   -0.049292   0.290711
     4  C    0.176731  -0.021429
     5  C   -0.104516   0.214214
     6  C   -0.121260  -0.099972
     7  H    0.126083  -0.008213
     8  H    0.134906  -0.008041
     9  H    0.118056   0.004470
    10  O   -0.291590  -0.142864
    11  H    0.084960   0.007888
    12  O   -0.350930   0.637211
    13  H    0.223196  -0.008518
    14  H    0.117145  -0.011684
    15  H    0.116639   0.003378
 Sum of Mulliken charges =  -0.00000   1.00000

 Dipole moment (field-independent basis, Debye):
    X=              3.6257    Y=              0.3899    Z=              0.1890  Tot=              3.6515
 Quadrupole moment (field-independent basis, Debye-Ang):
   XX=            -51.3253   YY=            -42.2593   ZZ=            -43.9867
   XY=             -1.5680   XZ=             -1.4884   YZ=             -1.6880

  Exact polarizability: 123.273  -4.815  81.309  -2.882  -1.582  58.491
 Approx polarizability: 211.892 -12.198 132.394  -6.638  -2.613  93.794

 ******    1 imaginary frequencies (negative Signs) ******

                      1                      2                      3
                      A                      A                      A
 Frequencies --   -686.0759                72.5454               130.9785
 Red. masses --     13.2407                 4.9303                 4.9301
 Frc consts  --      3.6720                 0.0153                 0.0498
 IR Inten    --     31.0020                 0.9027                 2.3257

                      4                      5                      6
                      A                      A                      A
 Frequencies --    169.8612               211.1387               296.3470
 Red. masses --      1.1251                 5.7554                 5.0956
 Frc consts  --      0.0191                 0.1512                 0.2637
 IR Inten    --     90.6842                 8.1760                 4.9135

                      7                      8                      9
                      A                      A                      A
 Frequencies --    357.7189               451.5503               574.5507
 Red. masses --      3.8119                 2.7768                 6.2269
 Frc consts  --      0.2874                 0.3336                 1.2111
 IR Inten    --     10.8024                 1.5358                 3.3164

                     10                     11                     12
                      A                      A                      A
 Frequencies --    587.7637               622.9115               733.6244
 Red. masses --      4.2084                 2.5062                 1.7119
 Frc consts  --      0.8566                 0.5730                 0.5428
 IR Inten    --      2.2608                15.8412                49.0685

                     13                     14                     15
                      A                      A                      A
 Frequencies --    779.9857               808.7352               858.0155
 Red. masses --      1.3796                 1.0927                 2.3472
 Frc consts  --      0.4945                 0.4211                 1.0181
 IR Inten    --      4.8002                86.8841                 5.2932

                     16                     17                     18
                      A                      A                      A
 Frequencies --    910.7056               946.1703               972.8360
 Red. masses --      1.5591                 2.8216                 1.4646
 Frc consts  --      0.7619                 1.4883                 0.8167
 IR Inten    --      8.6508                14.9700                 3.0520

                     19                     20                     21
                      A                      A                      A
 Frequencies --    992.2048               998.1940              1003.4736
 Red. masses --      2.3280                 3.1817                 1.6367
 Frc consts  --      1.3503                 1.8678                 0.9710
 IR Inten    --      1.8639                 2.4889                 2.7621

                     22                     23                     24
                      A                      A                      A
 Frequencies --   1046.5849              1147.8120              1181.8960
 Red. masses --      2.7469                 1.2314                 1.1377
 Frc consts  --      1.7728                 0.9558                 0.9364
 IR Inten    --     16.4966                 0.5270                 1.6583

                     25                     26                     27
                      A                      A                      A
 Frequencies --   1191.5369              1271.1764              1335.9466
 Red. masses --      1.1687                 1.3081                 3.4411
 Frc consts  --      0.9776                 1.2454                 3.6185
 IR Inten    --      2.3738                 2.0810                 6.4551

                     28                     29                     30
                      A                      A                      A
 Frequencies --   1376.7738              1432.4006              1474.9238
 Red. masses --      1.2419                 1.6975                 1.8969
 Frc consts  --      1.3870                 2.0520                 2.4313
 IR Inten    --      0.0138                 7.5505                23.8508

                     31                     32                     33
                      A                      A                      A
 Frequencies --   1521.7076              1641.6560              3053.1215
 Red. masses --      3.2299                 4.8429                 1.0859
 Frc consts  --      4.4066                 7.6899                 5.9640
 IR Inten    --      0.2258                 3.0975                39.3247

                     34                     35                     36
                      A                      A                      A
 Frequencies --   3165.0514              3174.8370              3189.0533
 Red. masses --      1.0859                 1.0874                 1.0935
 Frc consts  --      6.4090                 6.4580                 6.5525
 IR Inten    --      2.9846                 7.0492                15.0441

                     37                     38                     39
                      A                      A                      A
 Frequencies --   3197.5062              3228.6068              3776.5610
 Red. masses --      1.0959                 1.0925                 1.0676
 Frc consts  --      6.6013                 6.7100                 8.9713
 IR Inten    --      6.1126                 2.6751                52.2055

 - Thermochemistry -
 -------------------
 Temperature   298.150 Kelvin.  Pressure   1.00000 Atm.
 Atom     1 has atomic number  6 and mass  12.00000

 Molecular mass:   111.04460 amu.
 Principal axes and moments of inertia in atomic units:
                           1         2         3
     Eigenvalues --   482.703061064.400581310.68536
           X            0.99987  -0.00706  -0.01422
           Y            0.00690   0.99992  -0.01106
           Z            0.01430   0.01096   0.99984
 This molecule is an asymmetric top.
 Rotational symmetry number  1.
 Warning -- assumption of classical behavior for rotation
           may cause significant error
 Rotational temperatures (Kelvin)      0.17944     0.08137     0.06608
 Rotational constants (GHZ):           3.73882     1.69555     1.37694
    1 imaginary frequencies ignored.
 Zero-point vibrational energy     298387.3 (Joules/Mol)
                                   71.31628 (Kcal/Mol)
 Warning -- explicit consideration of   9 degrees of freedom as
           vibrations may cause significant error
 Vibrational temperatures:    104.38   188.45   244.39   303.78   426.38
          (Kelvin)            514.68   649.68   826.65   845.66   896.23
                             1055.52  1122.23  1163.59  1234.49  1310.30
                             1361.33  1399.69  1427.56  1436.18  1443.77
                             1505.80  1651.45  1700.48  1714.36  1828.94
                             1922.13  1980.87  2060.90  2122.09  2189.40
                             2361.98  4392.76  4553.80  4567.88  4588.34
                             4600.50  4645.25  5433.63

 Zero-point correction=                           0.113650 (Hartree/Particle)
 Thermal correction to Energy=                    0.121339
 Thermal correction to Enthalpy=                  0.122283
 Thermal correction to Gibbs Free Energy=         0.080726
 Sum of electronic and zero-point Energies=           -383.134250
 Sum of electronic and thermal Energies=              -383.126561
 Sum of electronic and thermal Enthalpies=            -383.125617
 Sum of electronic and thermal Free Energies=         -383.167174

                     E (Thermal)             CV                S
                      KCal/Mol        Cal/Mol-Kelvin    Cal/Mol-Kelvin
 Total                   76.141             28.097             87.465
 Electronic               0.000              0.000              1.377
 Translational            0.889              2.981             40.030
 Rotational               0.889              2.981             28.001
 Vibrational             74.364             22.135             18.056
 Vibration     1          0.599              1.967              4.083
 Vibration     2          0.612              1.922              2.932
 Vibration     3          0.625              1.880              2.437
 Vibration     4          0.643              1.824              2.034
 Vibration     5          0.690              1.681              1.437
 Vibration     6          0.733              1.559              1.132
 Vibration     7          0.810              1.357              0.791
 Vibration     8          0.931              1.086              0.496
 Vibration     9          0.945              1.058              0.471

 Optimization completed.
    -- Stationary point found.
 Normal termination of Gaussian 16 at Sat Jul 30 13:19:21 2022.
