 Gaussian 16, Revision C.01,
 Gaussian 16:  ES64L-G16RevC.01  3-Jul-2019

 ----------------------------------------------------------------------
 #p B3LYP/cc-pVTZ scf(verytight, maxcycles=1000) opt(calcfc, maxcyc=100
 0) freq(hpmodes) int(grid=ultrafine)
 ----------------------------------------------------------------------

 ------
 Mol_02
 ------
 Symbolic Z-matrix:
 Charge =  0 Multiplicity = 2

 SCF Done:  E(UB3LYP) =  -385.718310470     A.U. after   21 cycles
 SCF Done:  E(UB3LYP) =  -385.733555317     A.U. after   15 cycles
 SCF Done:  E(UB3LYP) =  -385.734258828     A.U. after   18 cycles
 SCF Done:  E(UB3LYP) =  -385.734307940     A.U. after   15 cycles
 SCF Done:  E(UB3LYP) =  -385.734316321     A.U. after   12 cycles
 Optimization completed.
    -- Stationary point found.
 Normal termination of Gaussian 16 at Fri Mar 25 16:16:44 2022.

 -------------------------------------------------------------------
 #P Geom=AllCheck Guess=TCheck SCRF=Check GenChk UB3LYP/CC-pVTZ Freq
 -------------------------------------------------------------------

 Structure from the checkpoint file:  "Mol_02.chk"
 ------
 Mol_02
 ------
 Charge =  0 Multiplicity = 2

                         Standard orientation:
 ---------------------------------------------------------------------
 Center     Atomic      Atomic             Coordinates (Angstroms)
 Number     Number       Type             X           Y           Z
 ---------------------------------------------------------------------
      1          6           0       -0.119638    1.155889   -0.276634
      2          6           0       -0.645763   -0.178900    0.231288
      3          6           0        0.231637   -1.348214   -0.185092
      4          6           0        1.675324   -1.126332    0.284971
      5          6           0        2.231458    0.214877   -0.203477
      6          6           0        1.320679    1.379003    0.199237
      7          1           0        1.699481    2.318348   -0.207215
      8          1           0        1.330731    1.487456    1.288548
      9          1           0        2.325092    0.191081   -1.293929
     10          1           0        3.237413    0.369413    0.191726
     11          1           0        2.302704   -1.948923   -0.062342
     12          1           0        1.707338   -1.154241    1.378824
     13          1           0        0.205799   -1.435338   -1.275015
     14          1           0       -0.170493   -2.277510    0.221203
     15          1           0       -0.776089   -0.151626    1.314687
     16          8           0       -1.980637   -0.436210   -0.323281
     17          8           0       -2.906136    0.301090    0.254242
     18          1           0       -0.777207    1.955824    0.064176
     19          1           0       -0.152766    1.148533   -1.370114
 ---------------------------------------------------------------------

 SCF Done:  E(UB3LYP) =  -385.734316321     A.U. after    1 cycles

 The electronic state is 2-A.
 Alpha  occ. eigenvalues --  -19.23999 -19.18942 -10.23907 -10.18484 -10.18369
 Alpha  occ. eigenvalues --  -10.18211 -10.18151 -10.17942  -1.18486  -0.88996
 Alpha  occ. eigenvalues --   -0.82974  -0.76117  -0.73755  -0.63153  -0.61957
 Alpha  occ. eigenvalues --   -0.57693  -0.52292  -0.50502  -0.48926  -0.47013
 Alpha  occ. eigenvalues --   -0.45276  -0.44159  -0.42272  -0.39881  -0.38720
 Alpha  occ. eigenvalues --   -0.36641  -0.36212  -0.34167  -0.33230  -0.32394
 Alpha  occ. eigenvalues --   -0.27567  -0.27404
 Alpha virt. eigenvalues --    0.02470   0.03959   0.05441   0.06521   0.08187
 Alpha virt. eigenvalues --    0.09645   0.09968   0.10594   0.10649   0.11312
 Alpha virt. eigenvalues --    0.12408   0.12721   0.14812   0.17010   0.18947

  Beta  occ. eigenvalues --  -19.22989 -19.17024 -10.23943 -10.18481 -10.18370
  Beta  occ. eigenvalues --  -10.18210 -10.18120 -10.17941  -1.15811  -0.87231
  Beta  occ. eigenvalues --   -0.81628  -0.76083  -0.72814  -0.63063  -0.61487
  Beta  occ. eigenvalues --   -0.57545  -0.51358  -0.49350  -0.46802  -0.46356
  Beta  occ. eigenvalues --   -0.44453  -0.42769  -0.41071  -0.39795  -0.37432
  Beta  occ. eigenvalues --   -0.36210  -0.35679  -0.34075  -0.32944  -0.31854
  Beta  occ. eigenvalues --   -0.25881
  Beta virt. eigenvalues --   -0.10566   0.02502   0.03989   0.05450   0.06611
  Beta virt. eigenvalues --    0.08515   0.09716   0.10092   0.10668   0.10721
  Beta virt. eigenvalues --    0.11864   0.12523   0.12845   0.15353   0.17259

 Mulliken charges and spin densities:
               1          2
     1  C   -0.174673   0.015141
     2  C    0.111717  -0.019004
     3  C   -0.185386   0.001187
     4  C   -0.182771  -0.000755
     5  C   -0.165946   0.000276
     6  C   -0.184825  -0.000504
     7  H    0.099550   0.000588
     8  H    0.085208   0.000000
     9  H    0.081935   0.000094
    10  H    0.096993  -0.000001
    11  H    0.100451   0.000291
    12  H    0.084059   0.000041
    13  H    0.088122  -0.000095
    14  H    0.104995  -0.000258
    15  H    0.086549   0.010880
    16  O   -0.061648   0.302663
    17  O   -0.183131   0.691175
    18  H    0.111178  -0.001148
    19  H    0.087623  -0.000570
 Sum of Mulliken charges =  -0.00000   1.00000

 Dipole moment (field-independent basis, Debye):
    X=              3.2652    Y=             -0.1518    Z=              0.2171  Tot=              3.2759
 Quadrupole moment (field-independent basis, Debye-Ang):
   XX=            -58.5595   YY=            -48.3742   ZZ=            -48.7756
   XY=              0.2226   XZ=             -0.3166   YZ=             -0.6683

  Exact polarizability:      90.606      -3.060      75.340      -1.774       0.877      65.404
 Approx polarizability:     117.412      -6.190     103.760      -3.899       3.638     103.121

                      1                      2                      3
                      A                      A                      A
 Frequencies --     81.1545               130.6329               224.5551
 Red. masses --      7.2637                 3.4515                 1.7996
 Frc consts  --      0.0282                 0.0347                 0.0535
 IR Inten    --      1.1802                 1.1589                 0.0951

                      4                      5                      6
                      A                      A                      A
 Frequencies --    252.9058               322.6707               365.0373
 Red. masses --      4.1031                 2.0461                 4.2850
 Frc consts  --      0.1546                 0.1255                 0.3364
 IR Inten    --      2.4747                 1.0126                 2.6913

                      7                      8                      9
                      A                      A                      A
 Frequencies --    441.3029               455.4165               506.7986
 Red. masses --      2.7472                 2.3606                 2.7370
 Frc consts  --      0.3152                 0.2885                 0.4142
 IR Inten    --      0.1601                 0.3858                 4.7962

                     10                     11                     12
                      A                      A                      A
 Frequencies --    565.5207               799.0743               806.9319
 Red. masses --      2.3671                 1.5853                 2.0612
 Frc consts  --      0.4460                 0.5964                 0.7907
 IR Inten    --      1.5698                 0.4422                 0.2921

                     13                     14                     15
                      A                      A                      A
 Frequencies --    847.1910               897.4338               899.4400
 Red. masses --      2.2774                 1.8384                 2.5510
 Frc consts  --      0.9631                 0.8723                 1.2159
 IR Inten    --      3.3734                 4.1347                 9.7215

                     16                     17                     18
                      A                      A                      A
 Frequencies --    918.6785               938.6364              1018.4923
 Red. masses --      2.0590                 1.4949                 2.2053
 Frc consts  --      1.0238                 0.7760                 1.3478
 IR Inten    --      6.1469                 0.3429                 9.2094

                     19                     20                     21
                      A                      A                      A
 Frequencies --   1046.3655              1067.4776              1090.5707
 Red. masses --      2.4142                 1.3490                 1.3199
 Frc consts  --      1.5573                 0.9057                 0.9249
 IR Inten    --      5.2861                 0.6595                 0.0248

                     22                     23                     24
                      A                      A                      A
 Frequencies --   1100.4070              1172.3633              1186.5406
 Red. masses --      2.1027                 2.5969                 4.7210
 Frc consts  --      1.5001                 2.1029                 3.9161
 IR Inten    --      2.2998                 1.5426                 6.4300

                     25                     26                     27
                      A                      A                      A
 Frequencies --   1213.6701              1273.3250              1286.3746
 Red. masses --      1.6299                 1.3066                 1.2857
 Frc consts  --      1.4145                 1.2482                 1.2535
 IR Inten    --      1.1513                 1.5674                 1.9525

                     28                     29                     30
                      A                      A                      A
 Frequencies --   1290.6021              1332.1647              1340.1457
 Red. masses --      1.2916                 1.1747                 1.3171
 Frc consts  --      1.2676                 1.2283                 1.3937
 IR Inten    --      1.7974                 4.3541                 0.0873

                     31                     32                     33
                      A                      A                      A
 Frequencies --   1368.7684              1377.4263              1379.2436
 Red. masses --      1.3320                 1.4425                 1.4144
 Frc consts  --      1.4703                 1.6125                 1.5853
 IR Inten    --      0.0809                 7.1653                 0.4055

                     34                     35                     36
                      A                      A                      A
 Frequencies --   1384.2980              1396.4021              1490.8745
 Red. masses --      1.4802                 1.4784                 1.0854
 Frc consts  --      1.6713                 1.6985                 1.4214
 IR Inten    --      1.8162                 2.6113                 0.0365

                     37                     38                     39
                      A                      A                      A
 Frequencies --   1492.4407              1495.3904              1500.8036
 Red. masses --      1.0909                 1.0966                 1.0853
 Frc consts  --      1.4317                 1.4447                 1.4402
 IR Inten    --      2.9764                 6.6248                11.4919

                     40                     41                     42
                      A                      A                      A
 Frequencies --   1513.7810              3004.2342              3008.3862
 Red. masses --      1.0985                 1.0724                 1.0691
 Frc consts  --      1.4831                 5.7025                 5.7007
 IR Inten    --      2.2218                 9.5810                15.9403

                     43                     44                     45
                      A                      A                      A
 Frequencies --   3014.7293              3021.9232              3024.6455
 Red. masses --      1.0629                 1.0636                 1.0640
 Frc consts  --      5.6914                 5.7224                 5.7353
 IR Inten    --     27.8639                 6.8382                22.5298

                     46                     47                     48
                      A                      A                      A
 Frequencies --   3049.9925              3057.3473              3060.0779
 Red. masses --      1.0836                 1.0936                 1.0949
 Frc consts  --      5.9391                 6.0227                 6.0410
 IR Inten    --     12.9326                50.3935                48.4811

                     49                     50                     51
                      A                      A                      A
 Frequencies --   3063.4413              3073.8966              3084.0187
 Red. masses --      1.0965                 1.1000                 1.0992
 Frc consts  --      6.0629                 6.1236                 6.1598
 IR Inten    --     38.5650                41.3728                31.2775

 - Thermochemistry -
 -------------------
 Temperature   298.150 Kelvin.  Pressure   1.00000 Atm.
 Atom     1 has atomic number  6 and mass  12.00000

 Molecular mass:   115.07590 amu.
 Principal axes and moments of inertia in atomic units:
                           1         2         3
     Eigenvalues --   443.281761302.037471621.70615
           X            1.00000  -0.00139   0.00015
           Y            0.00139   0.99998  -0.00587
           Z           -0.00014   0.00587   0.99998
 This molecule is an asymmetric top.
 Rotational symmetry number  1.
 Warning -- assumption of classical behavior for rotation
           may cause significant error
 Rotational temperatures (Kelvin)      0.19539     0.06652     0.05341
 Rotational constants (GHZ):           4.07132     1.38609     1.11287
 Zero-point vibrational energy     435045.9 (Joules/Mol)
                                  103.97847 (Kcal/Mol)
 Warning -- explicit consideration of  10 degrees of freedom as
           vibrations may cause significant error
 Vibrational temperatures:    116.76   187.95   323.08   363.88   464.25
          (Kelvin)            525.21   634.94   655.24   729.17   813.66
                             1149.69  1160.99  1218.92  1291.21  1294.09
                             1321.77  1350.49  1465.38  1505.49  1535.86
                             1569.09  1583.24  1686.77  1707.17  1746.20
                             1832.03  1850.81  1856.89  1916.69  1928.17
                             1969.35  1981.81  1984.42  1991.70  2009.11
                             2145.04  2147.29  2151.53  2159.32  2177.99
                             4322.42  4328.40  4337.52  4347.87  4351.79
                             4388.26  4398.84  4402.77  4407.61  4422.65
                             4437.22

 Zero-point correction=                           0.165700 (Hartree/Particle)
 Thermal correction to Energy=                    0.173398
 Thermal correction to Enthalpy=                  0.174342
 Thermal correction to Gibbs Free Energy=         0.132852
 Sum of electronic and zero-point Energies=           -385.568616
 Sum of electronic and thermal Energies=              -385.560919
 Sum of electronic and thermal Enthalpies=            -385.559974
 Sum of electronic and thermal Free Energies=         -385.601464

                     E (Thermal)             CV                S
                      KCal/Mol        Cal/Mol-Kelvin    Cal/Mol-Kelvin
 Total                  108.809             29.320             87.322
 Electronic               0.000              0.000              1.377
 Translational            0.889              2.981             40.137
 Rotational               0.889              2.981             28.328
 Vibrational            107.031             23.358             17.481
 Vibration     1          0.600              1.962              3.863
 Vibration     2          0.612              1.923              2.937
 Vibration     3          0.649              1.804              1.922
 Vibration     4          0.664              1.758              1.710
 Vibration     5          0.708              1.630              1.297
 Vibration     6          0.738              1.544              1.101
 Vibration     7          0.801              1.380              0.823
 Vibration     8          0.814              1.349              0.780
 Vibration     9          0.862              1.235              0.641
 Vibration    10          0.921              1.106              0.513

 Optimization completed.
    -- Stationary point found.
 Normal termination of Gaussian 16 at Fri Mar 25 16:37:12 2022.
