 Gaussian 16, Revision C.01,
 Gaussian 16:  ES64L-G16RevC.01  3-Jul-2019

 ----------------------------------------------------------------------
 #p B3LYP/cc-PVTZ scf(verytight, maxcycles=1000) opt(calcfc, maxcyc=100
 0) freq(hpmodes) int(grid=ultrafine)
 ----------------------------------------------------------------------

 ------
 Mol_01
 ------
 Symbolic Z-matrix:
 Charge =  0 Multiplicity = 2

 SCF Done:  E(UB3LYP) =  -235.284277700     A.U. after   13 cycles
 SCF Done:  E(UB3LYP) =  -235.293512742     A.U. after   12 cycles
 SCF Done:  E(UB3LYP) =  -235.296140133     A.U. after   11 cycles
 SCF Done:  E(UB3LYP) =  -235.297457727     A.U. after   11 cycles
 SCF Done:  E(UB3LYP) =  -235.297903730     A.U. after   11 cycles
 SCF Done:  E(UB3LYP) =  -235.298412009     A.U. after   11 cycles
 SCF Done:  E(UB3LYP) =  -235.298732061     A.U. after   11 cycles
 SCF Done:  E(UB3LYP) =  -235.298980166     A.U. after   11 cycles
 SCF Done:  E(UB3LYP) =  -235.298935887     A.U. after   11 cycles
 SCF Done:  E(UB3LYP) =  -235.299098578     A.U. after   11 cycles
 SCF Done:  E(UB3LYP) =  -235.298765689     A.U. after   12 cycles
 SCF Done:  E(UB3LYP) =  -235.299105749     A.U. after   11 cycles
 SCF Done:  E(UB3LYP) =  -235.298962707     A.U. after   11 cycles
 SCF Done:  E(UB3LYP) =  -235.299106865     A.U. after   11 cycles
 SCF Done:  E(UB3LYP) =  -235.299106184     A.U. after    7 cycles
 SCF Done:  E(UB3LYP) =  -235.299107611     A.U. after    8 cycles
 SCF Done:  E(UB3LYP) =  -235.299107430     A.U. after    7 cycles
 SCF Done:  E(UB3LYP) =  -235.299107700     A.U. after    7 cycles
 Optimization completed.
    -- Stationary point found.
 Normal termination of Gaussian 16 at Fri Mar 25 15:27:00 2022.

 -------------------------------------------------------------------
 #P Geom=AllCheck Guess=TCheck SCRF=Check GenChk UB3LYP/CC-pVTZ Freq
 -------------------------------------------------------------------

 Structure from the checkpoint file:  "Mol_01.chk"
 ------
 Mol_01
 ------
 Charge =  0 Multiplicity = 2

                         Standard orientation:
 ---------------------------------------------------------------------
 Center     Atomic      Atomic             Coordinates (Angstroms)
 Number     Number       Type             X           Y           Z
 ---------------------------------------------------------------------
      1          6           0        1.285611   -0.776670    0.155807
      2          6           0       -0.000018   -1.460529   -0.162801
      3          6           0       -1.285630   -0.776640    0.155807
      4          6           0       -1.264955    0.710844   -0.240619
      5          6           0        0.000017    1.408445    0.267198
      6          6           0        1.264973    0.710813   -0.240619
      7          1           0        2.156968    1.210222    0.143880
      8          1           0        1.303304    0.789616   -1.331113
      9          1           0        0.000017    1.407584    1.362970
     10          1           0        0.000030    2.456287   -0.041544
     11          1           0       -2.156938    1.210274    0.143879
     12          1           0       -1.303282    0.789647   -1.331113
     13          1           0       -1.477514   -0.834498    1.241601
     14          1           0       -2.125418   -1.287915   -0.319242
     15          1           0       -0.000036   -2.516295   -0.400319
     16          1           0        2.125386   -1.287967   -0.319240
     17          1           0        1.477492   -0.834532    1.241601
 ---------------------------------------------------------------------

 SCF Done:  E(UB3LYP) =  -235.299107700     A.U. after    1 cycles

 The electronic state is 2-A.
 Alpha  occ. eigenvalues --  -10.17241 -10.16849 -10.16848 -10.16593 -10.16591
 Alpha  occ. eigenvalues --  -10.16492  -0.83063  -0.74376  -0.73886  -0.61282
 Alpha  occ. eigenvalues --   -0.60134  -0.53822  -0.48562  -0.44275  -0.43850
 Alpha  occ. eigenvalues --   -0.41735  -0.38709  -0.38580  -0.37855  -0.34341
 Alpha  occ. eigenvalues --   -0.32794  -0.30918  -0.30685  -0.18498
 Alpha virt. eigenvalues --    0.03627   0.06010   0.06377   0.06977   0.09393
 Alpha virt. eigenvalues --    0.10008   0.10779   0.11184   0.12541   0.13126
 Alpha virt. eigenvalues --    0.14136   0.17076   0.19793   0.20287   0.22579

  Beta  occ. eigenvalues --  -10.16928 -10.16928 -10.16544 -10.16538 -10.16493
  Beta  occ. eigenvalues --  -10.15877  -0.82443  -0.74201  -0.72724  -0.61111
  Beta  occ. eigenvalues --   -0.59128  -0.52763  -0.48284  -0.43990  -0.43489
  Beta  occ. eigenvalues --   -0.40697  -0.38376  -0.37976  -0.37685  -0.33939
  Beta  occ. eigenvalues --   -0.32552  -0.30680  -0.30415
  Beta virt. eigenvalues --   -0.04635   0.03910   0.06107   0.06430   0.07115
  Beta virt. eigenvalues --    0.09847   0.10020   0.10826   0.11319   0.12646
  Beta virt. eigenvalues --    0.13361   0.14218   0.17170   0.19895   0.20870

 Mulliken charges and spin densities:
               1          2
     1  C   -0.148399  -0.049541
     2  C   -0.171401   0.954730
     3  C   -0.148400  -0.049541
     4  C   -0.155513   0.016870
     5  C   -0.157186  -0.002535
     6  C   -0.155513   0.016871
     7  H    0.087104   0.002378
     8  H    0.076501   0.004361
     9  H    0.070108   0.002493
    10  H    0.090880  -0.000035
    11  H    0.087104   0.002378
    12  H    0.076500   0.004361
    13  H    0.077818   0.058860
    14  H    0.088744   0.004701
    15  H    0.115089  -0.029912
    16  H    0.088744   0.004700
    17  H    0.077818   0.058860
 Sum of Mulliken charges =   0.00000   1.00000

 Dipole moment (field-independent basis, Debye):
    X=              0.0000    Y=              0.1086    Z=              0.1565  Tot=              0.1905
 Quadrupole moment (field-independent basis, Debye-Ang):
   XX=            -39.3756   YY=            -39.7047   ZZ=            -40.0604
   XY=              0.0000   XZ=              0.0000   YZ=              0.0315

  Exact polarizability:      73.810       0.000      71.916       0.000       0.930      60.321
 Approx polarizability:      96.843       0.000      95.076       0.000       1.674      92.708

                      1                      2                      3
                      A                      A                      A
 Frequencies --    171.7952               208.1574               325.0412
 Red. masses --      1.5967                 1.7690                 1.4598
 Frc consts  --      0.0278                 0.0452                 0.0909
 IR Inten    --      0.6386                 0.1336                 3.4562

                      4                      5                      6
                      A                      A                      A
 Frequencies --    391.0507               438.7415               459.0014
 Red. masses --      1.4796                 3.0985                 2.2989
 Frc consts  --      0.1333                 0.3514                 0.2854
 IR Inten    --     13.3648                 0.0122                 2.8356

                      7                      8                      9
                      A                      A                      A
 Frequencies --    610.1012               781.8569               804.8087
 Red. masses --      1.9323                 1.4435                 3.7348
 Frc consts  --      0.4238                 0.5199                 1.4253
 IR Inten    --      1.9039                 0.0790                 0.4016

                     10                     11                     12
                      A                      A                      A
 Frequencies --    854.4815               869.9876               874.5867
 Red. masses --      1.4213                 2.4801                 2.5576
 Frc consts  --      0.6114                 1.1060                 1.1526
 IR Inten    --      3.0041                 1.3374                 1.5223

                     13                     14                     15
                      A                      A                      A
 Frequencies --    926.3200              1014.8169              1032.8107
 Red. masses --      1.3549                 2.3242                 1.9175
 Frc consts  --      0.6850                 1.4103                 1.2051
 IR Inten    --      0.2300                 2.7564                 0.5164

                     16                     17                     18
                      A                      A                      A
 Frequencies --   1056.1635              1096.2443              1112.9207
 Red. masses --      1.8701                 1.0417                 1.8885
 Frc consts  --      1.2291                 0.7375                 1.3781
 IR Inten    --      0.0335                 0.9607                 0.1109

                     19                     20                     21
                      A                      A                      A
 Frequencies --   1129.7121              1151.8428              1254.1347
 Red. masses --      1.4586                 1.4469                 1.3560
 Frc consts  --      1.0968                 1.1310                 1.2566
 IR Inten    --      0.0549                 0.1007                 0.2408

                     22                     23                     24
                      A                      A                      A
 Frequencies --   1282.6884              1294.9830              1340.5850
 Red. masses --      1.2158                 1.2345                 1.4704
 Frc consts  --      1.1785                 1.2198                 1.5570
 IR Inten    --      2.6716                 0.0229                 0.0451

                     25                     26                     27
                      A                      A                      A
 Frequencies --   1351.9578              1352.2727              1378.3623
 Red. masses --      1.3118                 1.4553                 1.5020
 Frc consts  --      1.4126                 1.5679                 1.6813
 IR Inten    --      0.4437                 2.1229                 0.1487

                     28                     29                     30
                      A                      A                      A
 Frequencies --   1391.6388              1397.1527              1467.6569
 Red. masses --      1.4460                 1.6253                 1.0809
 Frc consts  --      1.6500                 1.8693                 1.3718
 IR Inten    --      0.0506                 1.2100                 2.7781

                     31                     32                     33
                      A                      A                      A
 Frequencies --   1472.2412              1490.3116              1493.3079
 Red. masses --      1.0881                 1.0956                 1.0833
 Frc consts  --      1.3896                 1.4337                 1.4233
 IR Inten    --      3.9466                 3.4955                 7.4500

                     34                     35                     36
                      A                      A                      A
 Frequencies --   1503.7239              2892.2698              2897.0248
 Red. masses --      1.0961                 1.0726                 1.0726
 Frc consts  --      1.4603                 5.2867                 5.3037
 IR Inten    --      1.7729                18.0726                70.1265

                     37                     38                     39
                      A                      A                      A
 Frequencies --   2996.3819              3011.3840              3012.3755
 Red. masses --      1.0696                 1.0625                 1.0617
 Frc consts  --      5.6582                 5.6769                 5.6766
 IR Inten    --     18.7128                18.2703                34.8888

                     40                     41                     42
                      A                      A                      A
 Frequencies --   3044.8108              3046.4316              3049.1622
 Red. masses --      1.0876                 1.0838                 1.0862
 Frc consts  --      5.9410                 5.9262                 5.9502
 IR Inten    --     52.0470                65.2322                27.6951

                     43                     44                     45
                      A                      A                      A
 Frequencies --   3050.4108              3054.6026              3164.3272
 Red. masses --      1.1011                 1.1047                 1.0886
 Frc consts  --      6.0364                 6.0733                 6.4222
 IR Inten    --     42.7490                73.8174                29.7236

 - Thermochemistry -
 -------------------
 Temperature   298.150 Kelvin.  Pressure   1.00000 Atm.
 Atom     1 has atomic number  6 and mass  12.00000

 Molecular mass:    83.08608 amu.
 Principal axes and moments of inertia in atomic units:
                           1         2         3
     Eigenvalues --   398.21920 415.97197 727.72753
           X            1.00000  -0.00000   0.00000
           Y            0.00000   1.00000  -0.00199
           Z            0.00000   0.00199   1.00000
 This molecule is an asymmetric top.
 Rotational symmetry number  1.
 Rotational temperatures (Kelvin)      0.21750     0.20822     0.11902
 Rotational constants (GHZ):           4.53203     4.33861     2.47997
 Zero-point vibrational energy     406734.1 (Joules/Mol)
                                   97.21179 (Kcal/Mol)
 Warning -- explicit consideration of   7 degrees of freedom as
           vibrations may cause significant error
 Vibrational temperatures:    247.17   299.49   467.66   562.63   631.25
          (Kelvin)            660.40   877.80  1124.92  1157.94  1229.41
                             1251.72  1258.34  1332.77  1460.10  1485.98
                             1519.58  1577.25  1601.24  1625.40  1657.24
                             1804.42  1845.50  1863.19  1928.80  1945.17
                             1945.62  1983.16  2002.26  2010.19  2111.63
                             2118.23  2144.23  2148.54  2163.52  4161.33
                             4168.17  4311.13  4332.71  4334.14  4380.80
                             4383.14  4387.06  4388.86  4394.89  4552.76

 Zero-point correction=                           0.154917 (Hartree/Particle)
 Thermal correction to Energy=                    0.160992
 Thermal correction to Enthalpy=                  0.161936
 Thermal correction to Gibbs Free Energy=         0.125160
 Sum of electronic and zero-point Energies=           -235.144191
 Sum of electronic and thermal Energies=              -235.138116
 Sum of electronic and thermal Enthalpies=            -235.137172
 Sum of electronic and thermal Free Energies=         -235.173948

                     E (Thermal)             CV                S
                      KCal/Mol        Cal/Mol-Kelvin    Cal/Mol-Kelvin
 Total                  101.024             23.605             77.403
 Electronic               0.000              0.000              1.377
 Translational            0.889              2.981             39.166
 Rotational               0.889              2.981             26.291
 Vibrational             99.247             17.643             10.568
 Vibration     1          0.626              1.877              2.416
 Vibration     2          0.641              1.828              2.060
 Vibration     3          0.709              1.625              1.285
 Vibration     4          0.759              1.489              0.996
 Vibration     5          0.799              1.386              0.831
 Vibration     6          0.817              1.341              0.769
 Vibration     7          0.969              1.010              0.433

 Optimization completed.
    -- Stationary point found.
 Normal termination of Gaussian 16 at Fri Mar 25 15:39:31 2022.
