 Gaussian 16, Revision C.01,
 Gaussian 16:  ES64L-G16RevC.01  3-Jul-2019

 ----------------------------------------------------------------------
 #p B3LYP/cc-pVTZ scf(verytight, maxcycles=1000) opt(calcfc, maxcyc=100
 0) freq(hpmodes) int(grid=ultrafine)
 ----------------------------------------------------------------------

 ------
 Mol_07
 ------
 Symbolic Z-matrix:
 Charge =  0 Multiplicity = 1

 SCF Done:  E(RB3LYP) =  -309.955330377     A.U. after   12 cycles
 SCF Done:  E(RB3LYP) =  -309.962864693     A.U. after   10 cycles
 SCF Done:  E(RB3LYP) =  -309.963276598     A.U. after    9 cycles
 SCF Done:  E(RB3LYP) =  -309.963280902     A.U. after    7 cycles
 Optimization completed.
    -- Stationary point found.

 1\1\GINC-MEDIAWIKI\FOpt\RB3LYP\CC-pVTZ\C6H10O1\SAURABH\25-Mar-2022\0\\
 #p B3LYP/cc-pVTZ scf(verytight, maxcycles=1000) opt(calcfc, maxcyc=100
 0) freq(hpmodes) int(grid=ultrafine)\\Mol_07\\0,1\C,0.0327051124,0.013
 5106348,-0.0450210217\C,1.0155954387,-1.1389875987,-0.0932504163\C,2.4
 705036084,-0.7111777042,0.1481288157\C,2.8163863575,0.5935520077,-0.57
 21037189\C,1.9567354071,1.7496416282,-0.0500039795\C,0.4865213119,1.41
 20445109,-0.0309146824\H,-0.1613367856,2.1584540658,0.4225955288\O,-0.
 0498107673,0.8322178833,-1.2254290327\H,2.1111411182,2.6490384464,-0.6

 Normal termination of Gaussian 16 at Fri Mar 25 20:11:00 2022.

 -------------------------------------------------------------------
 #P Geom=AllCheck Guess=TCheck SCRF=Check GenChk RB3LYP/CC-pVTZ Freq
 -------------------------------------------------------------------

 Structure from the checkpoint file:  "Mol_07.chk"
 ------
 Mol_07
 ------
 Charge =  0 Multiplicity = 1

                         Standard orientation:
 ---------------------------------------------------------------------
 Center     Atomic      Atomic             Coordinates (Angstroms)
 Number     Number       Type             X           Y           Z
 ---------------------------------------------------------------------
      1          6           0       -0.987865    0.830017   -0.295546
      2          6           0        0.338182    1.513787   -0.029632
      3          6           0        1.547150    0.577683   -0.171576
      4          6           0        1.284886   -0.801403    0.436723
      5          6           0        0.132646   -1.506742   -0.286444
      6          6           0       -1.089957   -0.632089   -0.413301
      7          1           0       -1.903971   -1.044883   -1.004487
      8          8           0       -1.522839    0.034823    0.777730
      9          1           0       -0.139107   -2.431682    0.228912
     10          1           0        0.446924   -1.792508   -1.295933
     11          1           0        1.039678   -0.697354    1.495598
     12          1           0        2.183409   -1.417868    0.376827
     13          1           0        2.423439    1.038355    0.287912
     14          1           0        1.783634    0.453531   -1.233188
     15          1           0        0.299624    1.930038    0.980625
     16          1           0        0.442356    2.361959   -0.709699
     17          1           0       -1.743528    1.434301   -0.789754
 ---------------------------------------------------------------------

 SCF Done:  E(RB3LYP) =  -309.963280902     A.U. after    1 cycles

 The electronic state is 1-A.
 Alpha  occ. eigenvalues --  -19.13094 -10.22424 -10.22375 -10.17518 -10.17486
 Alpha  occ. eigenvalues --  -10.17247 -10.16963  -1.06728  -0.81469  -0.75622
 Alpha  occ. eigenvalues --   -0.69819  -0.62231  -0.61223  -0.53894  -0.52027
 Alpha  occ. eigenvalues --   -0.46053  -0.45639  -0.44540  -0.41546  -0.39538
 Alpha  occ. eigenvalues --   -0.38248  -0.37303  -0.34342  -0.32726  -0.32072
 Alpha  occ. eigenvalues --   -0.28851  -0.26731
 Alpha virt. eigenvalues --    0.03192   0.05789   0.06190   0.07004   0.07959
 Alpha virt. eigenvalues --    0.09234   0.10051   0.10722   0.11259   0.12678
 Alpha virt. eigenvalues --    0.13454   0.14419   0.18088   0.19117   0.21464

 Mulliken charges:
               1
     1  C    0.041413
     2  C   -0.159845
     3  C   -0.168190
     4  C   -0.159067
     5  C   -0.155323
     6  C    0.049584
     7  H    0.091708
     8  O   -0.334978
     9  H    0.092093
    10  H    0.078059
    11  H    0.089510
    12  H    0.091585
    13  H    0.093668
    14  H    0.076443
    15  H    0.094324
    16  H    0.084505
    17  H    0.094510
 Sum of Mulliken charges =  -0.00000

 Dipole moment (field-independent basis, Debye):
    X=              1.1104    Y=              0.0609    Z=             -1.5526  Tot=              1.9098
 Quadrupole moment (field-independent basis, Debye-Ang):
   XX=            -45.2682   YY=            -41.3441   ZZ=            -44.6502
   XY=              0.0188   XZ=              3.1085   YZ=              0.0888

  Exact polarizability:      69.467       0.440      75.213       2.037       0.383      60.030
 Approx polarizability:      92.487       0.934     102.751      -1.327       0.786      95.564

                      1                      2                      3
                      A                      A                      A
 Frequencies --    142.2384               270.9763               357.0682
 Red. masses --      2.1977                 2.1030                 1.9922
 Frc consts  --      0.0262                 0.0910                 0.1497
 IR Inten    --      1.7922                 1.5161                 2.0087

                      4                      5                      6
                      A                      A                      A
 Frequencies --    375.4289               442.0543               543.0545
 Red. masses --      3.4365                 2.4737                 3.2845
 Frc consts  --      0.2854                 0.2848                 0.5707
 IR Inten    --      5.7986                 0.4379                 4.2787

                      7                      8                      9
                      A                      A                      A
 Frequencies --    648.0426               767.0409               783.5150
 Red. masses --      2.1778                 3.2985                 3.1937
 Frc consts  --      0.5389                 1.1434                 1.1552
 IR Inten    --      0.6542                 7.5167                13.9249

                     10                     11                     12
                      A                      A                      A
 Frequencies --    828.9652               845.8561               892.1641
 Red. masses --      1.5239                 2.6816                 2.1925
 Frc consts  --      0.6170                 1.1304                 1.0282
 IR Inten    --      1.6675                11.8611                 7.2792

                     13                     14                     15
                      A                      A                      A
 Frequencies --    901.0616               985.6822              1005.5096
 Red. masses --      2.4127                 2.1037                 2.7310
 Frc consts  --      1.1542                 1.2042                 1.6269
 IR Inten    --     14.1219                11.0423                 5.2832

                     16                     17                     18
                      A                      A                      A
 Frequencies --   1043.5738              1051.9402              1080.3551
 Red. masses --      1.6425                 1.6155                 1.5846
 Frc consts  --      1.0539                 1.0533                 1.0897
 IR Inten    --      1.3836                 1.5312                 0.4637

                     19                     20                     21
                      A                      A                      A
 Frequencies --   1101.6736              1171.7515              1194.6803
 Red. masses --      1.3069                 1.4591                 1.3633
 Frc consts  --      0.9346                 1.1804                 1.1464
 IR Inten    --      2.4557                 1.0114                 2.4180

                     22                     23                     24
                      A                      A                      A
 Frequencies --   1211.0727              1278.1059              1289.9235
 Red. masses --      1.5017                 1.2679                 1.3100
 Frc consts  --      1.2977                 1.2203                 1.2843
 IR Inten    --      3.9754                 0.9972                 3.7364

                     25                     26                     27
                      A                      A                      A
 Frequencies --   1304.6263              1359.9821              1372.0992
 Red. masses --      1.2292                 1.2831                 1.4905
 Frc consts  --      1.2327                 1.3983                 1.6533
 IR Inten    --      1.3796                 0.5831                 1.0073

                     28                     29                     30
                      A                      A                      A
 Frequencies --   1377.2940              1391.6798              1400.6856
 Red. masses --      1.4985                 1.5317                 1.3813
 Frc consts  --      1.6748                 1.7479                 1.5967
 IR Inten    --      1.7585                 0.4307                 2.7816

                     31                     32                     33
                      A                      A                      A
 Frequencies --   1462.9074              1481.4607              1486.2204
 Red. masses --      1.8744                 1.0934                 1.3007
 Frc consts  --      2.3635                 1.4139                 1.6928
 IR Inten    --      8.8656                 9.3527                 3.4060

                     34                     35                     36
                      A                      A                      A
 Frequencies --   1494.7198              1503.1804              3005.9421
 Red. masses --      1.0943                 1.1045                 1.0691
 Frc consts  --      1.4405                 1.4704                 5.6917
 IR Inten    --      5.2782                 4.3704                20.6441

                     37                     38                     39
                      A                      A                      A
 Frequencies --   3008.2551              3022.8069              3031.8334
 Red. masses --      1.0638                 1.0621                 1.0674
 Frc consts  --      5.6721                 5.7181                 5.7806
 IR Inten    --     30.8693                22.1335                 9.8539

                     40                     41                     42
                      A                      A                      A
 Frequencies --   3045.4776              3054.1430              3062.1978
 Red. masses --      1.0920                 1.0921                 1.0991
 Frc consts  --      5.9672                 6.0017                 6.0721
 IR Inten    --     49.0930                29.0966                41.0362

                     43                     44                     45
                      A                      A                      A
 Frequencies --   3071.9646              3088.5348              3103.5144
 Red. masses --      1.1046                 1.0863                 1.0911
 Frc consts  --      6.1416                 6.1053                 6.1922
 IR Inten    --     49.0647                34.2883                64.6705

 - Thermochemistry -
 -------------------
 Temperature   298.150 Kelvin.  Pressure   1.00000 Atm.
 Atom     1 has atomic number  6 and mass  12.00000

 Molecular mass:    98.07317 amu.
 Principal axes and moments of inertia in atomic units:
                           1         2         3
     Eigenvalues --   465.12653 572.99007 858.44120
           X            0.99951   0.00467   0.03107
           Y           -0.00470   0.99999   0.00086
           Z           -0.03107  -0.00101   0.99952
 This molecule is an asymmetric top.
 Rotational symmetry number  1.
 Warning -- assumption of classical behavior for rotation
           may cause significant error
 Rotational temperatures (Kelvin)      0.18622     0.15116     0.10090
 Rotational constants (GHZ):           3.88011     3.14969     2.10235
 Zero-point vibrational energy     396808.9 (Joules/Mol)
                                   94.83959 (Kcal/Mol)
 Warning -- explicit consideration of   6 degrees of freedom as
           vibrations may cause significant error
 Vibrational temperatures:    204.65   389.87   513.74   540.16   636.02
          (Kelvin)            781.33   932.39  1103.60  1127.30  1192.70
                             1217.00  1283.63  1296.43  1418.18  1446.70
                             1501.47  1513.51  1554.39  1585.06  1685.89
                             1718.88  1742.46  1838.91  1855.91  1877.07
                             1956.71  1974.14  1981.62  2002.32  2015.27
                             2104.80  2131.49  2138.34  2150.57  2162.74
                             4324.88  4328.21  4349.14  4362.13  4381.76
                             4394.23  4405.82  4419.87  4443.71  4465.26

 Zero-point correction=                           0.151137 (Hartree/Particle)
 Thermal correction to Energy=                    0.157130
 Thermal correction to Enthalpy=                  0.158075
 Thermal correction to Gibbs Free Energy=         0.121564
 Sum of electronic and zero-point Energies=           -309.812144
 Sum of electronic and thermal Energies=              -309.806150
 Sum of electronic and thermal Enthalpies=            -309.805206
 Sum of electronic and thermal Free Energies=         -309.841717

                     E (Thermal)             CV                S
                      KCal/Mol        Cal/Mol-Kelvin    Cal/Mol-Kelvin
 Total                   98.601             23.770             76.843
 Electronic               0.000              0.000              0.000
 Translational            0.889              2.981             39.660
 Rotational               0.889              2.981             26.928
 Vibrational             96.823             17.809             10.255
 Vibration     1          0.616              1.911              2.774
 Vibration     2          0.675              1.727              1.590
 Vibration     3          0.732              1.561              1.135
 Vibration     4          0.746              1.522              1.058
 Vibration     5          0.802              1.378              0.820
 Vibration     6          0.898              1.155              0.559

 Optimization completed.
    -- Stationary point found.

 1\1\GINC-MEDIAWIKI\Freq\RB3LYP\CC-pVTZ\C6H10O1\SAURABH\25-Mar-2022\0\\
 #P Geom=AllCheck Guess=TCheck SCRF=Check GenChk RB3LYP/CC-pVTZ Freq\\M
 ol_07\\0,1\C,0.0327051124,0.0135106348,-0.0450210217\C,1.0155954387,-1
 .1389875987,-0.0932504163\C,2.4705036084,-0.7111777042,0.1481288157\C,
 2.8163863575,0.5935520077,-0.5721037189\C,1.9567354071,1.7496416282,-0
 .0500039795\C,0.4865213119,1.4120445109,-0.0309146824\H,-0.1613367856,
 2.1584540658,0.4225955288\O,-0.0498107673,0.8322178833,-1.2254290327\H
 ,2.1111411182,2.6490384464,-0.6518345063\H,2.2560862702,2.0030024967,0

 Normal termination of Gaussian 16 at Fri Mar 25 20:20:26 2022.
