 Gaussian 16, Revision C.01,
 Gaussian 16:  ES64L-G16RevC.01  3-Jul-2019

 ----------------------------------------------------------------------
 #p B3LYP/cc-pVTZ scf(verytight, maxcycles=1000) opt(calcfc, maxcyc=100
 0) freq(hpmodes) int(grid=ultrafine)
 ----------------------------------------------------------------------

 ------
 Mol_06
 ------
 Symbolic Z-matrix:
 Charge =  0 Multiplicity = 1

 SCF Done:  E(RB3LYP) =  -234.730593243     A.U. after   11 cycles
 SCF Done:  E(RB3LYP) =  -234.734074257     A.U. after    9 cycles
 SCF Done:  E(RB3LYP) =  -234.734136502     A.U. after    8 cycles
 SCF Done:  E(RB3LYP) =  -234.734137412     A.U. after    6 cycles
 Optimization completed.
    -- Stationary point found.
 Normal termination of Gaussian 16 at Fri Mar 25 22:17:43 2022.

 -------------------------------------------------------------------
 #P Geom=AllCheck Guess=TCheck SCRF=Check GenChk RB3LYP/CC-pVTZ Freq
 -------------------------------------------------------------------

 Structure from the checkpoint file:  "Mol_06.chk"
 ------
 Mol_06
 ------
 Charge =  0 Multiplicity = 1

                         Standard orientation:
 ---------------------------------------------------------------------
 Center     Atomic      Atomic             Coordinates (Angstroms)
 Number     Number       Type             X           Y           Z
 ---------------------------------------------------------------------
      1          6           0        1.493240    0.048413    0.109913
      2          6           0        0.662624    1.302204    0.056893
      3          6           0       -0.662622    1.302205   -0.056894
      4          6           0       -1.493241    0.048415   -0.109910
      5          6           0       -0.696924   -1.189909    0.315775
      6          6           0        0.696922   -1.189909   -0.315777
      7          1           0        1.240457   -2.098105   -0.048371
      8          1           0        0.595292   -1.193818   -1.405178
      9          1           0       -0.595293   -1.193822    1.405176
     10          1           0       -1.240459   -2.098104    0.048367
     11          1           0       -2.375187    0.166413    0.526004
     12          1           0       -1.883533   -0.086031   -1.126065
     13          1           0       -1.191963    2.247292   -0.112713
     14          1           0        1.191967    2.247290    0.112709
     15          1           0        1.883527   -0.086035    1.126070
     16          1           0        2.375190    0.166409   -0.525997
 ---------------------------------------------------------------------

 SCF Done:  E(RB3LYP) =  -234.734137412     A.U. after    1 cycles

 The electronic state is 1-A.
 Alpha  occ. eigenvalues --  -10.16982 -10.16981 -10.16654 -10.16632 -10.16444
 Alpha  occ. eigenvalues --  -10.16354  -0.83215  -0.74112  -0.74031  -0.61978
 Alpha  occ. eigenvalues --   -0.59854  -0.50992  -0.49359  -0.44760  -0.42695
 Alpha  occ. eigenvalues --   -0.40899  -0.38984  -0.38074  -0.37922  -0.32844
 Alpha  occ. eigenvalues --   -0.31831  -0.30584  -0.24374
 Alpha virt. eigenvalues --    0.01692   0.03677   0.06496   0.06892   0.07177
 Alpha virt. eigenvalues --    0.09675   0.09734   0.11186   0.11767   0.13144
 Alpha virt. eigenvalues --    0.14385   0.17722   0.19648   0.22080   0.22362

 Mulliken charges:
               1
     1  C   -0.146987
     2  C   -0.143902
     3  C   -0.143900
     4  C   -0.146986
     5  C   -0.160025
     6  C   -0.160025
     7  H    0.088262
     8  H    0.079116
     9  H    0.079116
    10  H    0.088262
    11  H    0.088445
    12  H    0.087843
    13  H    0.107245
    14  H    0.107246
    15  H    0.087843
    16  H    0.088445
 Sum of Mulliken charges =  -0.00000

 Dipole moment (field-independent basis, Debye):
    X=             -0.0000    Y=             -0.3213    Z=              0.0000  Tot=              0.3213
 Quadrupole moment (field-independent basis, Debye-Ang):
   XX=            -37.3916   YY=            -38.5618   ZZ=            -39.6238
   XY=             -0.0000   XZ=              0.2295   YZ=             -0.0000

  Exact polarizability:      79.462      -0.000      68.932       1.560      -0.000      53.501
 Approx polarizability:     116.895      -0.000      90.671       3.839      -0.000      82.449

                      1                      2                      3
                      A                      A                      A
 Frequencies --    165.0329               275.1674               401.6350
 Red. masses --      1.7572                 1.8089                 1.9303
 Frc consts  --      0.0282                 0.0807                 0.1835
 IR Inten    --      0.2858                 0.0410                 0.0113

                      4                      5                      6
                      A                      A                      A
 Frequencies --    457.5924               502.9580               656.4664
 Red. masses --      2.2858                 4.3579                 1.3272
 Frc consts  --      0.2820                 0.6495                 0.3370
 IR Inten    --      1.1316                 0.0178                23.8526

                      7                      8                      9
                      A                      A                      A
 Frequencies --    732.0702               821.8436               828.8011
 Red. masses --      1.6220                 2.7533                 1.6031
 Frc consts  --      0.5122                 1.0957                 0.6488
 IR Inten    --      9.3037                 0.3187                 0.5259

                     10                     11                     12
                      A                      A                      A
 Frequencies --    880.9519               909.8226               936.3328
 Red. masses --      2.4555                 2.4692                 1.4027
 Frc consts  --      1.1228                 1.2043                 0.7246
 IR Inten    --      5.8896                 1.0725                 5.0294

                     13                     14                     15
                      A                      A                      A
 Frequencies --   1007.0416              1020.0417              1047.7464
 Red. masses --      1.1825                 3.1001                 1.6433
 Frc consts  --      0.7065                 1.9004                 1.0629
 IR Inten    --      0.0010                 1.5239                 4.1804

                     16                     17                     18
                      A                      A                      A
 Frequencies --   1071.5715              1100.8874              1161.9743
 Red. masses --      2.0706                 1.8905                 1.0828
 Frc consts  --      1.4009                 1.3499                 0.8613
 IR Inten    --      0.1298                 0.0035                 0.0791

                     19                     20                     21
                      A                      A                      A
 Frequencies --   1163.8994              1250.5929              1270.9635
 Red. masses --      1.1676                 1.1923                 1.2794
 Frc consts  --      0.9319                 1.0987                 1.2177
 IR Inten    --      5.2641                 0.0316                 0.5872

                     22                     23                     24
                      A                      A                      A
 Frequencies --   1295.0380              1360.2879              1370.9567
 Red. masses --      1.1717                 1.3217                 1.7167
 Frc consts  --      1.1578                 1.4409                 1.9010
 IR Inten    --      2.0882                 1.7975                 1.2984

                     25                     26                     27
                      A                      A                      A
 Frequencies --   1371.5383              1387.0763              1426.7188
 Red. masses --      1.3441                 1.5425                 1.4989
 Frc consts  --      1.4897                 1.7486                 1.7976
 IR Inten    --      0.2796                 0.0218                 0.0611

                     28                     29                     30
                      A                      A                      A
 Frequencies --   1476.8697              1482.9182              1494.9827
 Red. masses --      1.0910                 1.0801                 1.0906
 Frc consts  --      1.4020                 1.3995                 1.4361
 IR Inten    --      0.0245                 7.8435                 4.8060

                     31                     32                     33
                      A                      A                      A
 Frequencies --   1503.2465              1715.2585              2986.6406
 Red. masses --      1.0985                 6.1528                 1.0721
 Frc consts  --      1.4625                10.6656                 5.6342
 IR Inten    --      2.1979                 3.5506                56.7792

                     34                     35                     36
                      A                      A                      A
 Frequencies --   2986.7016              3007.3717              3013.9008
 Red. masses --      1.0723                 1.0685                 1.0651
 Frc consts  --      5.6359                 5.6939                 5.7006
 IR Inten    --      0.0900                12.9891                16.9781

                     37                     38                     39
                      A                      A                      A
 Frequencies --   3030.0963              3030.7614              3056.0484
 Red. masses --      1.0882                 1.0822                 1.0932
 Frc consts  --      5.8866                 5.8571                 6.0156
 IR Inten    --      0.4487                96.7392                57.7545

                     40                     41                     42
                      A                      A                      A
 Frequencies --   3058.4174              3127.2057              3150.7630
 Red. masses --      1.1046                 1.0840                 1.0960
 Frc consts  --      6.0875                 6.2457                 6.4106
 IR Inten    --     57.5815                10.1159                40.9614

 - Thermochemistry -
 -------------------
 Temperature   298.150 Kelvin.  Pressure   1.00000 Atm.
 Atom     1 has atomic number  6 and mass  12.00000

 Molecular mass:    82.07825 amu.
 Principal axes and moments of inertia in atomic units:
                           1         2         3
     Eigenvalues --   380.57083 395.65750 705.63488
           X            1.00000  -0.00000   0.00239
           Y            0.00000   1.00000  -0.00000
           Z           -0.00239   0.00000   1.00000
 This molecule is an asymmetric top.
 Rotational symmetry number  1.
 Rotational temperatures (Kelvin)      0.22759     0.21891     0.12275
 Rotational constants (GHZ):           4.74220     4.56137     2.55761
 Zero-point vibrational energy     382782.2 (Joules/Mol)
                                   91.48715 (Kcal/Mol)
 Warning -- explicit consideration of   5 degrees of freedom as
           vibrations may cause significant error
 Vibrational temperatures:    237.45   395.90   577.86   658.37   723.64
          (Kelvin)            944.51  1053.29  1182.45  1192.46  1267.49
                             1309.03  1347.17  1448.91  1467.61  1507.47
                             1541.75  1583.93  1671.82  1674.59  1799.32
                             1828.63  1863.27  1957.15  1972.50  1973.34
                             1995.69  2052.73  2124.89  2133.59  2150.95
                             2162.84  2467.87  4297.11  4297.20  4326.94
                             4336.33  4359.63  4360.59  4396.97  4400.38
                             4499.35  4533.25

 Zero-point correction=                           0.145794 (Hartree/Particle)
 Thermal correction to Energy=                    0.151308
 Thermal correction to Enthalpy=                  0.152252
 Thermal correction to Gibbs Free Energy=         0.117154
 Sum of electronic and zero-point Energies=           -234.588343
 Sum of electronic and thermal Energies=              -234.582830
 Sum of electronic and thermal Enthalpies=            -234.581886
 Sum of electronic and thermal Free Energies=         -234.616984

                     E (Thermal)             CV                S
                      KCal/Mol        Cal/Mol-Kelvin    Cal/Mol-Kelvin
 Total                   94.947             21.485             73.870
 Electronic               0.000              0.000              0.000
 Translational            0.889              2.981             39.129
 Rotational               0.889              2.981             26.166
 Vibrational             93.169             15.523              8.575
 Vibration     1          0.623              1.885              2.491
 Vibration     2          0.677              1.719              1.564
 Vibration     3          0.767              1.467              0.957
 Vibration     4          0.816              1.344              0.773
 Vibration     5          0.858              1.243              0.651

 Optimization completed.
    -- Stationary point found.
 Normal termination of Gaussian 16 at Fri Mar 25 22:24:37 2022.
