 Gaussian 16, Revision C.01,
 Gaussian 16:  ES64L-G16RevC.01  3-Jul-2019

 ----------------------------------------------------------------------
 #p B3LYP/cc-pVTZ scf(verytight, maxcycles=1000) opt(calcfc, maxcyc=100
 0) freq(hpmodes) int(grid=ultrafine)
 ----------------------------------------------------------------------

 ------
 Mol_03
 ------
 Symbolic Z-matrix:
 Charge =  0 Multiplicity = 2

 SCF Done:  E(UB3LYP) =  -385.704332574     A.U. after   15 cycles
 Optimization completed.
    -- Stationary point found.
 Normal termination of Gaussian 16 at Fri Mar 25 17:21:15 2022.

 -------------------------------------------------------------------
 #P Geom=AllCheck Guess=TCheck SCRF=Check GenChk UB3LYP/CC-pVTZ Freq
 -------------------------------------------------------------------

 Structure from the checkpoint file:  "Mol_03.chk"
 ------
 Mol_03
 ------
 Charge =  0 Multiplicity = 2

                         Standard orientation:
 ---------------------------------------------------------------------
 Center     Atomic      Atomic             Coordinates (Angstroms)
 Number     Number       Type             X           Y           Z
 ---------------------------------------------------------------------
      1          6           0       -0.624685   -0.207931    0.245677
      2          6           0        0.313967   -1.351706   -0.157268
      3          6           0        1.748666   -1.064431    0.298789
      4          6           0        2.266775    0.261398   -0.262880
      5          6           0        1.343548    1.430535    0.124347
      6          6           0       -0.087158    1.121347   -0.152553
      7          1           0       -0.787815    1.899876   -0.416331
      8          1           0        1.643710    2.345333   -0.389472
      9          1           0        1.484706    1.634034    1.199739
     10          1           0        2.319516    0.193643   -1.352921
     11          1           0        3.280881    0.453762    0.093371
     12          1           0        2.398212   -1.885427   -0.010724
     13          1           0        1.785838   -1.036560    1.392994
     14          1           0        0.283462   -1.450436   -1.245014
     15          1           0       -0.051921   -2.287905    0.266534
     16          8           0       -1.878998   -0.514603   -0.373770
     17          8           0       -2.863109    0.438170    0.110524
     18          1           0       -3.414631   -0.142565    0.651480
     19          1           0       -0.771779   -0.247569    1.339654
 ---------------------------------------------------------------------

 SCF Done:  E(UB3LYP) =  -385.704332574     A.U. after    1 cycles

 The electronic state is 2-A.
 Alpha  occ. eigenvalues --  -19.18073 -19.17751 -10.22849 -10.17651 -10.17612
 Alpha  occ. eigenvalues --  -10.17598 -10.17589 -10.17316  -1.11456  -0.91800
 Alpha  occ. eigenvalues --   -0.82975  -0.75065  -0.73167  -0.62119  -0.61009
 Alpha  occ. eigenvalues --   -0.55445  -0.52005  -0.49523  -0.47792  -0.45520
 Alpha  occ. eigenvalues --   -0.43662  -0.41754  -0.40757  -0.39526  -0.38259
 Alpha  occ. eigenvalues --   -0.35476  -0.33793  -0.33591  -0.32255  -0.30119
 Alpha  occ. eigenvalues --   -0.26873  -0.19376
 Alpha virt. eigenvalues --    0.01421   0.03475   0.04251   0.05986   0.06561
 Alpha virt. eigenvalues --    0.08222   0.10065   0.10710   0.11088   0.12059
 Alpha virt. eigenvalues --    0.12686   0.13881   0.15009   0.18402   0.19933

  Beta  occ. eigenvalues --  -19.18059 -19.17747 -10.22932 -10.17727 -10.17605
  Beta  occ. eigenvalues --  -10.17544 -10.17259 -10.16233  -1.11429  -0.91688
  Beta  occ. eigenvalues --   -0.82495  -0.74445  -0.72276  -0.61621  -0.60441
  Beta  occ. eigenvalues --   -0.54723  -0.51655  -0.49282  -0.47407  -0.45269
  Beta  occ. eigenvalues --   -0.43129  -0.41635  -0.40321  -0.39192  -0.37726
  Beta  occ. eigenvalues --   -0.35180  -0.33576  -0.33339  -0.32000  -0.29968
  Beta  occ. eigenvalues --   -0.26692
  Beta virt. eigenvalues --   -0.05413   0.01469   0.03733   0.04344   0.06053
  Beta virt. eigenvalues --    0.06602   0.08322   0.10351   0.10822   0.11236
  Beta virt. eigenvalues --    0.12192   0.12892   0.14004   0.15106   0.18488

 Mulliken charges and spin densities:
               1          2
     1  C    0.177147  -0.043358
     2  C   -0.177146   0.016010
     3  C   -0.175566  -0.001528
     4  C   -0.156018   0.017856
     5  C   -0.162755  -0.049632
     6  C   -0.181297   0.954178
     7  H    0.132500  -0.026793
     8  H    0.095240   0.004585
     9  H    0.083517   0.058377
    10  H    0.082654   0.003709
    11  H    0.090981   0.003156
    12  H    0.097902   0.000513
    13  H    0.075788   0.002075
    14  H    0.086674   0.004079
    15  H    0.094776   0.003058
    16  O   -0.205141   0.004286
    17  O   -0.227113   0.000772
    18  H    0.221857   0.000198
    19  H    0.046000   0.048457
 Sum of Mulliken charges =  -0.00000   1.00000

 Dipole moment (field-independent basis, Debye):
    X=              0.9699    Y=             -0.5840    Z=              1.5487  Tot=              1.9184
 Quadrupole moment (field-independent basis, Debye-Ang):
   XX=            -47.3373   YY=            -49.4687   ZZ=            -49.6824
   XY=              1.8773   XZ=             -4.5470   YZ=             -0.8298

  Exact polarizability:      93.104      -1.473      77.821      -1.622      -0.704      65.149
 Approx polarizability:     117.803      -4.178     108.156      -1.790       0.359     102.006

                      1                      2                      3
                      A                      A                      A
 Frequencies --     96.1273               118.7914               186.0180
 Red. masses --      3.6789                 3.4179                 1.7987
 Frc consts  --      0.0200                 0.0284                 0.0367
 IR Inten    --      1.1727                 4.6553                 2.6424

                      4                      5                      6
                      A                      A                      A
 Frequencies --    202.7855               241.9066               314.4685
 Red. masses --      1.3375                 2.5371                 1.8027
 Frc consts  --      0.0324                 0.0875                 0.1050
 IR Inten    --     96.1655                10.8346                 1.7247

                      7                      8                      9
                      A                      A                      A
 Frequencies --    347.1631               372.6427               456.3801
 Red. masses --      1.5156                 3.5651                 3.0170
 Frc consts  --      0.1076                 0.2917                 0.3702
 IR Inten    --      8.3076                 4.5682                 0.0103

                     10                     11                     12
                      A                      A                      A
 Frequencies --    491.4717               530.3264               607.5270
 Red. masses --      3.3577                 3.3376                 2.0500
 Frc consts  --      0.4779                 0.5531                 0.4458
 IR Inten    --      3.8457                 6.9490                 4.2453

                     13                     14                     15
                      A                      A                      A
 Frequencies --    793.4726               838.3919               868.0652
 Red. masses --      2.1182                 1.8767                 2.0716
 Frc consts  --      0.7858                 0.7772                 0.9197
 IR Inten    --      1.9932                 5.4809                 3.8366

                     16                     17                     18
                      A                      A                      A
 Frequencies --    902.8012               907.4420               940.4775
 Red. masses --      3.5182                 1.6860                 4.1423
 Frc consts  --      1.6895                 0.8180                 2.1587
 IR Inten    --     12.2632                 3.6771                 5.4537

                     19                     20                     21
                      A                      A                      A
 Frequencies --    965.6743              1035.0423              1057.6489
 Red. masses --      2.5250                 2.1678                 2.2852
 Frc consts  --      1.3873                 1.3683                 1.5061
 IR Inten    --      7.1786                 7.6821                 2.1302

                     22                     23                     24
                      A                      A                      A
 Frequencies --   1070.5289              1103.4948              1111.7295
 Red. masses --      1.6509                 1.9180                 1.3515
 Frc consts  --      1.1147                 1.3761                 0.9841
 IR Inten    --      3.3171                 5.9785                 2.2625

                     25                     26                     27
                      A                      A                      A
 Frequencies --   1149.0862              1205.4523              1258.6561
 Red. masses --      1.7913                 1.4960                 1.3957
 Frc consts  --      1.3935                 1.2808                 1.3027
 IR Inten    --      2.2729                 3.1256                 0.7901

                     28                     29                     30
                      A                      A                      A
 Frequencies --   1278.3585              1314.6222              1328.7898
 Red. masses --      1.2270                 1.3122                 1.2171
 Frc consts  --      1.1815                 1.3362                 1.2662
 IR Inten    --      2.2713                 1.3020                 2.4590

                     31                     32                     33
                      A                      A                      A
 Frequencies --   1347.2849              1351.5667              1363.8920
 Red. masses --      1.3892                 1.4657                 1.2051
 Frc consts  --      1.4857                 1.5775                 1.3208
 IR Inten    --      3.8465                 2.6357                31.8015

                     34                     35                     36
                      A                      A                      A
 Frequencies --   1375.0533              1382.3228              1398.8538
 Red. masses --      1.3523                 1.5221                 1.6444
 Frc consts  --      1.5065                 1.7136                 1.8959
 IR Inten    --     28.5090                 0.7191                12.6965

                     37                     38                     39
                      A                      A                      A
 Frequencies --   1472.8184              1491.8575              1495.6451
 Red. masses --      1.0848                 1.0946                 1.0844
 Frc consts  --      1.3864                 1.4353                 1.4292
 IR Inten    --      4.6929                 2.4876                 6.8023

                     40                     41                     42
                      A                      A                      A
 Frequencies --   1504.5781              2882.7603              2902.2527
 Red. masses --      1.0941                 1.0778                 1.0728
 Frc consts  --      1.4593                 5.2772                 5.3242
 IR Inten    --      2.2459                41.7298                50.8050

                     43                     44                     45
                      A                      A                      A
 Frequencies --   3003.8314              3018.5884              3030.9419
 Red. masses --      1.0696                 1.0611                 1.0611
 Frc consts  --      5.6864                 5.6967                 5.7430
 IR Inten    --     21.7385                28.0088                17.0126

                     46                     47                     48
                      A                      A                      A
 Frequencies --   3054.0264              3056.1840              3059.6996
 Red. masses --      1.0862                 1.0909                 1.1009
 Frc consts  --      5.9688                 6.0033                 6.0723
 IR Inten    --     46.3268                48.6849                44.7823

                     49                     50                     51
                      A                      A                      A
 Frequencies --   3074.9549              3197.2121              3757.6729
 Red. masses --      1.1041                 1.0886                 1.0686
 Frc consts  --      6.1506                 6.5563                 8.8902
 IR Inten    --     38.7504                 5.1542                38.0220

 - Thermochemistry -
 -------------------
 Temperature   298.150 Kelvin.  Pressure   1.00000 Atm.
 Atom     1 has atomic number  6 and mass  12.00000

 Molecular mass:   115.07590 amu.
 Principal axes and moments of inertia in atomic units:
                           1         2         3
     Eigenvalues --   440.339451326.760501658.30020
           X            0.99997   0.00272  -0.00696
           Y           -0.00277   0.99997  -0.00669
           Z            0.00694   0.00671   0.99995
 This molecule is an asymmetric top.
 Rotational symmetry number  1.
 Warning -- assumption of classical behavior for rotation
           may cause significant error
 Rotational temperatures (Kelvin)      0.19670     0.06528     0.05223
 Rotational constants (GHZ):           4.09852     1.36026     1.08831
 Zero-point vibrational energy     426572.4 (Joules/Mol)
                                  101.95326 (Kcal/Mol)
 Warning -- explicit consideration of  12 degrees of freedom as
           vibrations may cause significant error
 Vibrational temperatures:    138.31   170.91   267.64   291.76   348.05
          (Kelvin)            452.45   499.49   536.15   656.63   707.12
                              763.02   874.10  1141.63  1206.26  1248.95
                             1298.93  1305.61  1353.14  1389.39  1489.20
                             1521.72  1540.25  1587.68  1599.53  1653.28
                             1734.38  1810.93  1839.27  1891.45  1911.83
                             1938.44  1944.60  1962.34  1978.39  1988.85
                             2012.64  2119.06  2146.45  2151.90  2164.75
                             4147.65  4175.69  4321.84  4343.08  4360.85
                             4394.06  4397.17  4402.23  4424.17  4600.08
                             5406.45

 Zero-point correction=                           0.162473 (Hartree/Particle)
 Thermal correction to Energy=                    0.171031
 Thermal correction to Enthalpy=                  0.171975
 Thermal correction to Gibbs Free Energy=         0.128962
 Sum of electronic and zero-point Energies=           -385.541860
 Sum of electronic and thermal Energies=              -385.533302
 Sum of electronic and thermal Enthalpies=            -385.532358
 Sum of electronic and thermal Free Energies=         -385.575371

                     E (Thermal)             CV                S
                      KCal/Mol        Cal/Mol-Kelvin    Cal/Mol-Kelvin
 Total                  107.323             32.108             90.529
 Electronic               0.000              0.000              1.377
 Translational            0.889              2.981             40.137
 Rotational               0.889              2.981             28.362
 Vibrational            105.546             26.146             20.653
 Vibration     1          0.603              1.952              3.531
 Vibration     2          0.609              1.934              3.120
 Vibration     3          0.632              1.859              2.267
 Vibration     4          0.639              1.836              2.108
 Vibration     5          0.658              1.776              1.789
 Vibration     6          0.702              1.646              1.339
 Vibration     7          0.725              1.581              1.179
 Vibration     8          0.744              1.528              1.069
 Vibration     9          0.815              1.347              0.777
 Vibration    10          0.847              1.269              0.680
 Vibration    11          0.885              1.183              0.586
 Vibration    12          0.966              1.016              0.437

 Optimization completed.
    -- Stationary point found.
 Normal termination of Gaussian 16 at Fri Mar 25 17:41:23 2022.
