 Gaussian 16, Revision B.01,
 Gaussian 16:  ES64L-G16RevB.01 20-Dec-2017

 ----------------------------------------------------------------------
 # opt=(calcfc,qst2,modredundant) freq ub3lyp cc-pvtz+d int(grid=ultraf
 ine)
 ----------------------------------------------------------------------

 --------------------------------
 QOOH-OOH-Elim-QST2-TS4-b3lyP-c-A
 --------------------------------
 Symbolic Z-matrix:
 Charge =  0 Multiplicity = 2

 -------------------
 Title Card Required
 -------------------
 Symbolic Z-matrix:
 Charge =  0 Multiplicity = 2

 SCF Done:  E(UB3LYP) =  -385.622280117     A.U. after   24 cycles
 SCF Done:  E(UB3LYP) =  -385.632499430     A.U. after   22 cycles
 SCF Done:  E(UB3LYP) =  -385.641729111     A.U. after   20 cycles
 SCF Done:  E(UB3LYP) =  -385.650684243     A.U. after   18 cycles
 SCF Done:  E(UB3LYP) =  -385.656350310     A.U. after   19 cycles
 SCF Done:  E(UB3LYP) =  -385.667024486     A.U. after   15 cycles
 SCF Done:  E(UB3LYP) =  -385.675417385     A.U. after   15 cycles
 SCF Done:  E(UB3LYP) =  -385.678908010     A.U. after   15 cycles
 SCF Done:  E(UB3LYP) =  -385.682118123     A.U. after   16 cycles
 SCF Done:  E(UB3LYP) =  -385.682998668     A.U. after   15 cycles
 SCF Done:  E(UB3LYP) =  -385.685691088     A.U. after   14 cycles
 SCF Done:  E(UB3LYP) =  -385.686033126     A.U. after   14 cycles
 SCF Done:  E(UB3LYP) =  -385.685852944     A.U. after   15 cycles
 SCF Done:  E(UB3LYP) =  -385.686065250     A.U. after   14 cycles
 SCF Done:  E(UB3LYP) =  -385.685907506     A.U. after   14 cycles
 SCF Done:  E(UB3LYP) =  -385.686073744     A.U. after   14 cycles
 SCF Done:  E(UB3LYP) =  -385.686082099     A.U. after   12 cycles
 SCF Done:  E(UB3LYP) =  -385.686082987     A.U. after   11 cycles
 SCF Done:  E(UB3LYP) =  -385.686083004     A.U. after    9 cycles
 Optimization completed.
    -- Stationary point found.
 Normal termination of Gaussian 16 at Wed May 11 19:19:51 2022.

 ---------------------------------------------------------------------
 #N Geom=AllCheck Guess=TCheck SCRF=Check GenChk UB3LYP/CC-pVTZ+d Freq
 ---------------------------------------------------------------------

 Structure from the checkpoint file:  "QOOH-OOH-Elim-QST2-TS4-b3lyP-c-A.chk"
 --------------------------------
 QOOH-OOH-Elim-QST2-TS4-b3lyP-c-A
 --------------------------------
 Charge =  0 Multiplicity = 2

                         Standard orientation:
 ---------------------------------------------------------------------
 Center     Atomic      Atomic             Coordinates (Angstroms)
 Number     Number       Type             X           Y           Z
 ---------------------------------------------------------------------
      1          6           0        0.029951    0.962133   -0.853940
      2          6           0        0.434622   -0.363423   -0.804010
      3          6           0       -0.505905   -1.438999   -0.306554
      4          6           0       -1.888924   -0.901392    0.083623
      5          6           0       -1.766701    0.429757    0.825857
      6          6           0       -1.137686    1.489166   -0.084731
      7          1           0       -0.834498    2.367217    0.495942
      8          1           0       -1.889080    1.865509   -0.792922
      9          1           0       -1.137049    0.292727    1.708637
     10          1           0       -2.741912    0.770273    1.177461
     11          1           0       -2.411248   -1.638842    0.695093
     12          1           0       -2.496133   -0.754115   -0.814839
     13          1           0       -0.036493   -1.929318    0.549939
     14          1           0       -0.600992   -2.206770   -1.077600
     15          1           0        1.190555   -0.677534   -1.510165
     16          8           0        1.656730   -0.377746    0.642949
     17          8           0        2.896071    0.147336    0.249105
     18          1           0        2.902757    1.018094    0.670068
     19          1           0        0.639537    1.672583   -1.399520
 ---------------------------------------------------------------------

 SCF Done:  E(UB3LYP) =  -385.686083004     A.U. after    1 cycles

 The electronic state is 2-A.
 Alpha  occ. eigenvalues --  -19.17914 -19.16977 -10.20628 -10.18851 -10.18064
 Alpha  occ. eigenvalues --  -10.17345 -10.17160 -10.17137  -1.10968  -0.86163
 Alpha  occ. eigenvalues --   -0.82906  -0.75272  -0.74788  -0.62898  -0.61128
 Alpha  occ. eigenvalues --   -0.52589  -0.51357  -0.50289  -0.46673  -0.44532
 Alpha  occ. eigenvalues --   -0.42272  -0.42061  -0.41512  -0.39772  -0.39041
 Alpha  occ. eigenvalues --   -0.37640  -0.33381  -0.32553  -0.31792  -0.28448
 Alpha  occ. eigenvalues --   -0.26980  -0.21273
 Alpha virt. eigenvalues --    0.01501   0.03186   0.03824   0.06417   0.06479
 Alpha virt. eigenvalues --    0.07401   0.09008   0.09373   0.10003   0.11366
 Alpha virt. eigenvalues --    0.12320   0.13410   0.14733   0.17581   0.19367

  Beta  occ. eigenvalues --  -19.17712 -19.15582 -10.20815 -10.18108 -10.17991
  Beta  occ. eigenvalues --  -10.17327 -10.17160 -10.17136  -1.09585  -0.85035
  Beta  occ. eigenvalues --   -0.81398  -0.74850  -0.74186  -0.62613  -0.60798
  Beta  occ. eigenvalues --   -0.52204  -0.50779  -0.49907  -0.46085  -0.44148
  Beta  occ. eigenvalues --   -0.41668  -0.41308  -0.39956  -0.38980  -0.38518
  Beta  occ. eigenvalues --   -0.36895  -0.33245  -0.32419  -0.31695  -0.26145
  Beta  occ. eigenvalues --   -0.24929
  Beta virt. eigenvalues --   -0.09603   0.02191   0.03761   0.04797   0.06446
  Beta virt. eigenvalues --    0.06596   0.07782   0.09204   0.09502   0.10400
  Beta virt. eigenvalues --    0.11494   0.12478   0.13571   0.14751   0.17686

 Mulliken charges and spin densities:
               1          2
     1  C   -0.147972   0.585682
     2  C    0.025339  -0.101113
     3  C   -0.171564   0.007628
     4  C   -0.167231  -0.000724
     5  C   -0.148160   0.003565
     6  C   -0.148884  -0.029273
     7  H    0.090132   0.018765
     8  H    0.093375   0.027500
     9  H    0.082950   0.000535
    10  H    0.090488  -0.000182
    11  H    0.092937  -0.000090
    12  H    0.077553   0.000261
    13  H    0.100292  -0.006610
    14  H    0.096827  -0.002663
    15  H    0.133747   0.007043
    16  O   -0.240689   0.443784
    17  O   -0.206148   0.064102
    18  H    0.224675  -0.000201
    19  H    0.122333  -0.018007
 Sum of Mulliken charges =  -0.00000   1.00000

 Dipole moment (field-independent basis, Debye):
    X=             -1.5498    Y=              1.6132    Z=             -0.4649  Tot=              2.2848
 Quadrupole moment (field-independent basis, Debye-Ang):
   XX=            -51.8967   YY=            -46.1492   ZZ=            -49.3989
   XY=              4.6552   XZ=             -0.1423   YZ=              1.5931

  Exact polarizability: 106.202  -3.239  83.497   6.718  -1.848  71.339
 Approx polarizability: 146.452 -10.297 121.702  18.558  -8.839 113.769

 ******    1 imaginary frequencies (negative Signs) ******

                      1                      2                      3
                      A                      A                      A
 Frequencies --   -482.5643                59.2492                91.8931
 Red. masses --     10.6270                 3.7478                 3.9393
 Frc consts  --      1.4580                 0.0078                 0.0196
 IR Inten    --     81.4162                 0.6391                 6.0546

                      4                      5                      6
                      A                      A                      A
 Frequencies --    143.6848               198.3686               283.6295
 Red. masses --      3.2944                 2.6736                 1.8097
 Frc consts  --      0.0401                 0.0620                 0.0858
 IR Inten    --      3.0394                 0.7730                 0.8103

                      7                      8                      9
                      A                      A                      A
 Frequencies --    334.5486               358.2804               409.4347
 Red. masses --      4.6677                 2.4147                 1.1147
 Frc consts  --      0.3078                 0.1826                 0.1101
 IR Inten    --     14.0079                 9.7071               103.1090

                     10                     11                     12
                      A                      A                      A
 Frequencies --    461.5376               499.3316               675.7740
 Red. masses --      2.3283                 4.1509                 1.4733
 Frc consts  --      0.2922                 0.6098                 0.3964
 IR Inten    --      0.7061                 0.3383                 9.6106

                     13                     14                     15
                      A                      A                      A
 Frequencies --    722.3976               808.6234               821.3977
 Red. masses --      1.5691                 2.0579                 2.1852
 Frc consts  --      0.4824                 0.7928                 0.8687
 IR Inten    --      7.2297                 7.9438                 3.1748

                     16                     17                     18
                      A                      A                      A
 Frequencies --    881.8042               887.9400               911.3757
 Red. masses --      2.4271                 2.4898                 1.6220
 Frc consts  --      1.1120                 1.1566                 0.7938
 IR Inten    --      7.0307                21.3963                 8.9733

                     19                     20                     21
                      A                      A                      A
 Frequencies --    948.1380              1012.7954              1052.2070
 Red. masses --      5.7325                 2.8445                 1.5474
 Frc consts  --      3.0363                 1.7191                 1.0094
 IR Inten    --    147.6051                 1.1854                 2.7860

                     22                     23                     24
                      A                      A                      A
 Frequencies --   1061.3716              1067.4757              1084.8461
 Red. masses --      1.2606                 1.8439                 1.7390
 Frc consts  --      0.8367                 1.2379                 1.2058
 IR Inten    --      2.4882                 2.2345                 0.5735

                     25                     26                     27
                      A                      A                      A
 Frequencies --   1154.5620              1164.5737              1223.1642
 Red. masses --      1.1327                 1.0707                 1.4269
 Frc consts  --      0.8896                 0.8556                 1.2578
 IR Inten    --      2.0583                 1.4753                 3.5390

                     28                     29                     30
                      A                      A                      A
 Frequencies --   1263.7726              1295.8285              1358.2692
 Red. masses --      1.2929                 1.1722                 1.3195
 Frc consts  --      1.2167                 1.1597                 1.4342
 IR Inten    --      1.1183                 2.0045                 0.9443

                     31                     32                     33
                      A                      A                      A
 Frequencies --   1368.2525              1369.1793              1373.1519
 Red. masses --      1.4434                 1.5428                 1.1279
 Frc consts  --      1.5921                 1.7041                 1.2530
 IR Inten    --      0.1038                 0.5487                35.9921

                     34                     35                     36
                      A                      A                      A
 Frequencies --   1386.7752              1422.3626              1458.4330
 Red. masses --      1.5278                 1.5387                 1.2329
 Frc consts  --      1.7311                 1.8341                 1.5451
 IR Inten    --      1.5310                 0.2495                15.2958

                     37                     38                     39
                      A                      A                      A
 Frequencies --   1476.7642              1497.0847              1503.8992
 Red. masses --      1.1115                 1.0926                 1.0979
 Frc consts  --      1.4281                 1.4429                 1.4630
 IR Inten    --     11.8398                 8.6035                 4.9612

                     40                     41                     42
                      A                      A                      A
 Frequencies --   1508.7299              2962.5103              3002.5977
 Red. masses --      2.2818                 1.0733                 1.0819
 Frc consts  --      3.0602                 5.5501                 5.7468
 IR Inten    --     37.5072                23.4248                23.7904

                     43                     44                     45
                      A                      A                      A
 Frequencies --   3009.6661              3025.8077              3029.1575
 Red. masses --      1.0704                 1.0616                 1.0624
 Frc consts  --      5.7127                 5.7267                 5.7437
 IR Inten    --     19.3062                12.5117                39.8721

                     46                     47                     48
                      A                      A                      A
 Frequencies --   3052.5848              3064.0678              3067.3963
 Red. masses --      1.0962                 1.0957                 1.1048
 Frc consts  --      6.0185                 6.0611                 6.1248
 IR Inten    --     23.9170                50.2550                40.2882

                     49                     50                     51
                      A                      A                      A
 Frequencies --   3148.9229              3172.6420              3724.3992
 Red. masses --      1.0861                 1.0918                 1.0686
 Frc consts  --      6.3454                 6.4747                 8.7334
 IR Inten    --     11.0523                15.6846                33.8800

 - Thermochemistry -
 -------------------
 Temperature   298.150 Kelvin.  Pressure   1.00000 Atm.
 Atom     1 has atomic number  6 and mass  12.00000

 Molecular mass:   115.07590 amu.
 Principal axes and moments of inertia in atomic units:
                           1         2         3
     Eigenvalues --   539.009931288.903821498.71506
           X            0.99983   0.01197  -0.01392
           Y           -0.01168   0.99972   0.02062
           Z            0.01417  -0.02046   0.99969
 This molecule is an asymmetric top.
 Rotational symmetry number  1.
 Warning -- assumption of classical behavior for rotation
           may cause significant error
 Rotational temperatures (Kelvin)      0.16069     0.06720     0.05779
 Rotational constants (GHZ):           3.34825     1.40021     1.20419
    1 imaginary frequencies ignored.
 Zero-point vibrational energy     423840.9 (Joules/Mol)
                                  101.30040 (Kcal/Mol)
 Warning -- explicit consideration of  10 degrees of freedom as
           vibrations may cause significant error
 Vibrational temperatures:     85.25   132.21   206.73   285.41   408.08
          (Kelvin)            481.34   515.49   589.09   664.05   718.43
                              972.29  1039.37  1163.43  1181.81  1268.72
                             1277.55  1311.27  1364.16  1457.19  1513.89
                             1527.08  1535.86  1560.85  1661.16  1675.56
                             1759.86  1818.29  1864.41  1954.25  1968.61
                             1969.94  1975.66  1995.26  2046.46  2098.36
                             2124.73  2153.97  2163.78  2170.73  4262.39
                             4320.07  4330.24  4353.46  4358.28  4391.99
                             4408.51  4413.30  4530.60  4564.72  5358.58

 Zero-point correction=                           0.161432 (Hartree/Particle)
 Thermal correction to Energy=                    0.169888
 Thermal correction to Enthalpy=                  0.170832
 Thermal correction to Gibbs Free Energy=         0.127366
 Sum of electronic and zero-point Energies=           -385.524651
 Sum of electronic and thermal Energies=              -385.516195
 Sum of electronic and thermal Enthalpies=            -385.515251
 Sum of electronic and thermal Free Energies=         -385.558717

                     E (Thermal)             CV                S
                      KCal/Mol        Cal/Mol-Kelvin    Cal/Mol-Kelvin
 Total                  106.606             31.078             91.483
 Electronic               0.000              0.000              1.377
 Translational            0.889              2.981             40.137
 Rotational               0.889              2.981             28.434
 Vibrational            104.829             25.116             21.536
 Vibration     1          0.597              1.974              4.482
 Vibration     2          0.602              1.955              3.619
 Vibration     3          0.616              1.909              2.754
 Vibration     4          0.637              1.842              2.148
 Vibration     5          0.682              1.704              1.512
 Vibration     6          0.716              1.607              1.238
 Vibration     7          0.733              1.558              1.130
 Vibration     8          0.774              1.450              0.929
 Vibration     9          0.819              1.335              0.762
 Vibration    10          0.855              1.251              0.660

                           ! Non-Optimized Parameters !
 Normal termination of Gaussian 16 at Wed May 11 19:27:55 2022.
