 Gaussian 16, Revision C.01,
 Gaussian 16:  ES64L-G16RevC.01  3-Jul-2019

 ----------------------------------------------------------------------
 #p B3LYP/cc-pVTZ+d scf(verytight, maxcycles=1000) Freq int(grid=ultraf
 ine)
 ----------------------------------------------------------------------

 -----
 TS_02
 -----
 Symbolic Z-matrix:
 Charge =  0 Multiplicity = 2

                         Standard orientation:
 ---------------------------------------------------------------------
 Center     Atomic      Atomic             Coordinates (Angstroms)
 Number     Number       Type             X           Y           Z
 ---------------------------------------------------------------------
      1          6           0       -0.361491    0.385879    1.042979
      2          6           0       -0.167309   -0.970851    0.789359
      3          6           0        1.030451   -1.450090   -0.042901
      4          6           0        2.043260   -0.335459   -0.329491
      5          6           0        1.339879    0.965970   -0.720671
      6          6           0        0.471918    1.466940    0.434949
      7          1           0       -0.162583    2.300359    0.127689
      8          1           0        1.116708    1.862750    1.231929
      9          1           0        0.713659    0.796040   -1.600681
     10          1           0        2.067298    1.731471   -0.994921
     11          1           0        2.731150   -0.652928   -1.114941
     12          1           0        2.649600   -0.154238    0.563759
     13          1           0        0.681572   -1.868590   -0.991131
     14          1           0        1.521592   -2.271039    0.482199
     15          1           0       -0.496639   -1.648751    1.573929
     16          8           0       -2.222550   -0.611363   -0.698211
     17          8           0       -2.119991    0.602407   -0.324901
     18          1           0       -1.011701    0.676708    1.857139
     19          1           0       -1.210579   -1.074462    0.004559
 ---------------------------------------------------------------------

 SCF Done:  E(UB3LYP) =  -385.684664887     A.U. after   17 cycles

 The electronic state is 2-A.
 Alpha  occ. eigenvalues --  -19.21246 -19.20354 -10.21608 -10.18523 -10.18024
 Alpha  occ. eigenvalues --  -10.17632 -10.17573 -10.17533  -1.19024  -0.84918
 Alpha  occ. eigenvalues --   -0.79846  -0.76158  -0.75366  -0.63611  -0.61502
 Alpha  occ. eigenvalues --   -0.53098  -0.52470  -0.50875  -0.48267  -0.47069
 Alpha  occ. eigenvalues --   -0.45402  -0.44070  -0.42117  -0.40458  -0.39438
 Alpha  occ. eigenvalues --   -0.38383  -0.34369  -0.32951  -0.32212  -0.29574
 Alpha  occ. eigenvalues --   -0.26476  -0.25099
 Alpha virt. eigenvalues --   -0.03734   0.02574   0.05458   0.05985   0.06816
 Alpha virt. eigenvalues --    0.08520   0.09011   0.09529   0.10727   0.12449
 Alpha virt. eigenvalues --    0.13468   0.16075   0.17323   0.17859   0.20718

  Beta  occ. eigenvalues --  -19.19810 -19.18616 -10.21691 -10.18516 -10.18025
  Beta  occ. eigenvalues --  -10.17632 -10.17573 -10.17521  -1.15941  -0.84960
  Beta  occ. eigenvalues --   -0.76541  -0.76141  -0.74286  -0.63592  -0.61501
  Beta  occ. eigenvalues --   -0.53029  -0.51720  -0.50624  -0.45477  -0.45231
  Beta  occ. eigenvalues --   -0.44014  -0.42047  -0.40843  -0.39435  -0.39092
  Beta  occ. eigenvalues --   -0.38278  -0.34296  -0.32952  -0.32183  -0.28882
  Beta  occ. eigenvalues --   -0.23891
  Beta virt. eigenvalues --   -0.09067  -0.03521   0.02589   0.05485   0.06023
  Beta virt. eigenvalues --    0.06826   0.08550   0.09032   0.09669   0.10773
  Beta virt. eigenvalues --    0.12476   0.13544   0.16204   0.17902   0.18293

 Mulliken charges and spin densities:
               1          2
     1  C   -0.050593  -0.057758
     2  C   -0.220285   0.008176
     3  C   -0.173877  -0.000464
     4  C   -0.160983   0.000419
     5  C   -0.167969  -0.000833
     6  C   -0.148988   0.005539
     7  H    0.110118  -0.001908
     8  H    0.098223  -0.002470
     9  H    0.091354  -0.001108
    10  H    0.094139  -0.000015
    11  H    0.094710  -0.000011
    12  H    0.077808  -0.000074
    13  H    0.093648   0.000750
    14  H    0.095200   0.000192
    15  H    0.112651  -0.001154
    16  O   -0.117595   0.473847
    17  O   -0.163850   0.591487
    18  H    0.141586   0.001983
    19  H    0.194702  -0.016601
 Sum of Mulliken charges =  -0.00000   1.00000

 Dipole moment (field-independent basis, Debye):
    X=              2.4720    Y=             -0.0293    Z=              1.3513  Tot=              2.8174
 Quadrupole moment (field-independent basis, Debye-Ang):
   XX=            -55.4161   YY=            -48.0454   ZZ=            -48.7260
   XY=              0.7302   XZ=             -3.0234   YZ=              0.1624

  Exact polarizability:      88.904       0.847      84.779       5.119       2.667      72.039
 Approx polarizability:     131.545       4.140     134.535      23.490      11.669     118.419

 ******    1 imaginary frequencies (negative Signs) ******

                      1                      2                      3
                      A                      A                      A
 Frequencies --   -970.0540                82.6772               122.6384
 Red. masses --      1.4109                 3.3265                 4.5761
 Frc consts  --      0.7822                 0.0134                 0.0406
 IR Inten    --    187.9914                 0.8736                 1.3010

                      4                      5                      6
                      A                      A                      A
 Frequencies --    197.6235               215.8693               305.2980
 Red. masses --      2.7826                 4.1267                 1.8825
 Frc consts  --      0.0640                 0.1133                 0.1034
 IR Inten    --      2.5113                 6.6923                 5.8494

                      7                      8                      9
                      A                      A                      A
 Frequencies --    382.8677               444.1321               469.1231
 Red. masses --      3.0097                 2.6540                 3.2387
 Frc consts  --      0.2599                 0.3084                 0.4200
 IR Inten    --     37.9224                 0.3249                 1.8414

                     10                     11                     12
                      A                      A                      A
 Frequencies --    542.9228               659.6322               715.6243
 Red. masses --      2.9972                 3.0805                 3.1317
 Frc consts  --      0.5205                 0.7897                 0.9449
 IR Inten    --     10.1464                 8.5832                 0.2408

                     13                     14                     15
                      A                      A                      A
 Frequencies --    797.9577               821.5627               824.9761
 Red. masses --      1.5641                 1.3089                 2.3574
 Frc consts  --      0.5868                 0.5205                 0.9453
 IR Inten    --      1.5878                 5.0856                 5.6817

                     16                     17                     18
                      A                      A                      A
 Frequencies --    882.6773               906.1261               946.0279
 Red. masses --      2.4485                 2.0909                 1.3826
 Frc consts  --      1.1240                 1.0115                 0.7291
 IR Inten    --      4.6307                 9.7168                19.1708

                     19                     20                     21
                      A                      A                      A
 Frequencies --    976.7028              1027.4372              1051.0282
 Red. masses --      1.2952                 2.2497                 1.7236
 Frc consts  --      0.7280                 1.3992                 1.1218
 IR Inten    --      2.0618                 7.6273                 2.9905

                     22                     23                     24
                      A                      A                      A
 Frequencies --   1072.3713              1109.3340              1151.2179
 Red. masses --      2.0486                 1.8179                 1.0822
 Frc consts  --      1.3881                 1.3181                 0.8450
 IR Inten    --      6.9480                 1.2114                 2.9948

                     25                     26                     27
                      A                      A                      A
 Frequencies --   1182.2528              1237.0721              1275.7602
 Red. masses --      1.2395                 1.2366                 1.2699
 Frc consts  --      1.0207                 1.1150                 1.2177
 IR Inten    --      4.6113                14.9262                12.9066

                     28                     29                     30
                      A                      A                      A
 Frequencies --   1290.0458              1306.2665              1317.6166
 Red. masses --      1.1248                 1.4361                 3.0868
 Frc consts  --      1.1029                 1.4438                 3.1575
 IR Inten    --      9.5056                27.2758               158.9413

                     31                     32                     33
                      A                      A                      A
 Frequencies --   1357.9196              1369.3722              1375.4279
 Red. masses --      1.2932                 1.3284                 1.5665
 Frc consts  --      1.4050                 1.4676                 1.7460
 IR Inten    --      3.0067                 0.4407                 1.3408

                     34                     35                     36
                      A                      A                      A
 Frequencies --   1385.8844              1408.7133              1459.6318
 Red. masses --      1.5989                 1.4913                 1.1097
 Frc consts  --      1.8094                 1.7437                 1.3930
 IR Inten    --      1.1303                 0.8785                 9.0625

                     37                     38                     39
                      A                      A                      A
 Frequencies --   1492.3522              1498.2637              1507.4051
 Red. masses --      1.1064                 1.0913                 1.1080
 Frc consts  --      1.4518                 1.4434                 1.4833
 IR Inten    --      6.6766                 4.4443                 2.5882

                     40                     41                     42
                      A                      A                      A
 Frequencies --   1558.8811              1572.7744              2971.7847
 Red. masses --      2.0044                 1.3440                 1.0734
 Frc consts  --      2.8698                 1.9587                 5.5855
 IR Inten    --     41.6801                20.5082                18.5929

                     43                     44                     45
                      A                      A                      A
 Frequencies --   3005.0488              3015.5359              3025.2248
 Red. masses --      1.0719                 1.0654                 1.0621
 Frc consts  --      5.7029                 5.7079                 5.7269
 IR Inten    --     17.0270                29.3676                20.3061

                     46                     47                     48
                      A                      A                      A
 Frequencies --   3053.7986              3054.7274              3062.2286
 Red. masses --      1.0896                 1.0876                 1.0962
 Frc consts  --      5.9869                 5.9797                 6.0566
 IR Inten    --     50.6116                 4.4204                50.8645

                     49                     50                     51
                      A                      A                      A
 Frequencies --   3066.8253              3095.6018              3173.9225
 Red. masses --      1.1026                 1.0858                 1.0909
 Frc consts  --      6.1100                 6.1307                 6.4746
 IR Inten    --     41.5302                12.2760                15.4601

 - Thermochemistry -
 -------------------
 Temperature   298.150 Kelvin.  Pressure   1.00000 Atm.
 Atom     1 has atomic number  6 and mass  12.00000

 Molecular mass:   115.07590 amu.
 Principal axes and moments of inertia in atomic units:
                           1         2         3
     Eigenvalues --   600.205191139.925481357.56481
           X            0.99962   0.00204  -0.02766
           Y           -0.00220   0.99998  -0.00594
           Z            0.02765   0.00600   0.99960
 This molecule is an asymmetric top.
 Rotational symmetry number  1.
 Warning -- assumption of classical behavior for rotation
           may cause significant error
 Rotational temperatures (Kelvin)      0.14431     0.07598     0.06380
 Rotational constants (GHZ):           3.00687     1.58321     1.32940
    1 imaginary frequencies ignored.
 Zero-point vibrational energy     417653.2 (Joules/Mol)
                                   99.82152 (Kcal/Mol)
 Warning -- explicit consideration of   9 degrees of freedom as
           vibrations may cause significant error
 Vibrational temperatures:    118.95   176.45   284.34   310.59   439.26
          (Kelvin)            550.86   639.01   674.96   781.14   949.06
                             1029.62  1148.08  1182.05  1186.96  1269.98
                             1303.71  1361.12  1405.26  1478.25  1512.20
                             1542.90  1596.08  1656.35  1701.00  1779.87
                             1835.53  1856.09  1879.43  1895.76  1953.74
                             1970.22  1978.93  1993.98  2026.82  2100.08
                             2147.16  2155.67  2168.82  2242.88  2262.87
                             4275.74  4323.60  4338.68  4352.62  4393.74
                             4395.07  4405.86  4412.48  4453.88  4566.57

 Zero-point correction=                           0.159076 (Hartree/Particle)
 Thermal correction to Energy=                    0.166858
 Thermal correction to Enthalpy=                  0.167802
 Thermal correction to Gibbs Free Energy=         0.126071
 Sum of electronic and zero-point Energies=           -385.525589
 Sum of electronic and thermal Energies=              -385.517807
 Sum of electronic and thermal Enthalpies=            -385.516863
 Sum of electronic and thermal Free Energies=         -385.558594

                     E (Thermal)             CV                S
                      KCal/Mol        Cal/Mol-Kelvin    Cal/Mol-Kelvin
 Total                  104.705             29.464             87.830
 Electronic               0.000              0.000              1.377
 Translational            0.889              2.981             40.137
 Rotational               0.889              2.981             28.320
 Vibrational            102.927             23.502             17.996
 Vibration     1          0.600              1.961              3.826
 Vibration     2          0.610              1.930              3.058
 Vibration     3          0.637              1.843              2.155
 Vibration     4          0.645              1.817              1.993
 Vibration     5          0.696              1.664              1.388
 Vibration     6          0.752              1.507              1.028
 Vibration     7          0.804              1.374              0.814
 Vibration     8          0.826              1.319              0.740
 Vibration     9          0.898              1.155              0.559

 Optimization completed.
    -- Stationary point found.
 Normal termination of Gaussian 16 at Sun Jul 10 15:32:26 2022.
