 Gaussian 16, Revision B.01,
 Gaussian 16:  ES64L-G16RevB.01 20-Dec-2017

 ----------------------------------------------------------------------
 # opt=(calcfc,ts,noeigentest) freq ub3lyp cc-pvtz+d int=grid=ultrafine
 ----------------------------------------------------------------------

 ------------------------
 QOOH-OH-Elim-TS5-b3lyp-c
 ------------------------
 Symbolic Z-matrix:
 Charge =  0 Multiplicity = 2

 SCF Done:  E(UB3LYP) =  -385.596207698     A.U. after   19 cycles
 SCF Done:  E(UB3LYP) =  -385.630248851     A.U. after   18 cycles
 SCF Done:  E(UB3LYP) =  -385.656913810     A.U. after   18 cycles
 SCF Done:  E(UB3LYP) =  -385.669922181     A.U. after   19 cycles
 SCF Done:  E(UB3LYP) =  -385.676034429     A.U. after   18 cycles
 SCF Done:  E(UB3LYP) =  -385.678847982     A.U. after   19 cycles
 SCF Done:  E(UB3LYP) =  -385.680305884     A.U. after   18 cycles
 SCF Done:  E(UB3LYP) =  -385.686644196     A.U. after   17 cycles
 SCF Done:  E(UB3LYP) =  -385.686575777     A.U. after   15 cycles
 SCF Done:  E(UB3LYP) =  -385.685445018     A.U. after   18 cycles
 SCF Done:  E(UB3LYP) =  -385.686605004     A.U. after   11 cycles
 SCF Done:  E(UB3LYP) =  -385.686604984     A.U. after   11 cycles
 SCF Done:  E(UB3LYP) =  -385.686605128     A.U. after    9 cycles
 SCF Done:  E(UB3LYP) =  -385.686219527     A.U. after   17 cycles
 SCF Done:  E(UB3LYP) =  -385.685774456     A.U. after   18 cycles
 SCF Done:  E(UB3LYP) =  -385.686352906     A.U. after   17 cycles
 SCF Done:  E(UB3LYP) =  -385.686472839     A.U. after   17 cycles
 SCF Done:  E(UB3LYP) =  -385.686602257     A.U. after   14 cycles
 SCF Done:  E(UB3LYP) =  -385.686605206     A.U. after   13 cycles
 Optimization completed.
    -- Stationary point found.
 Normal termination of Gaussian 16 at Tue May 10 20:13:45 2022.

 ---------------------------------------------------------------------
 #N Geom=AllCheck Guess=TCheck SCRF=Check GenChk UB3LYP/CC-pVTZ+d Freq
 ---------------------------------------------------------------------

 Structure from the checkpoint file:  "QOOH-OH-Elim-TS5-b3lyp-c.chk"
 ------------------------
 QOOH-OH-Elim-TS5-b3lyp-c
 ------------------------
 Charge =  0 Multiplicity = 2

                         Standard orientation:
 ---------------------------------------------------------------------
 Center     Atomic      Atomic             Coordinates (Angstroms)
 Number     Number       Type             X           Y           Z
 ---------------------------------------------------------------------
      1          6           0       -0.295192   -1.232519    0.717086
      2          6           0        0.609076   -0.066475    0.822298
      3          6           0        0.018636    1.322598    0.566035
      4          6           0       -1.418918    1.300853    0.019586
      5          6           0       -1.669403    0.107908   -0.904495
      6          6           0       -1.512709   -1.205583   -0.130227
      7          1           0       -1.527423   -2.071085   -0.799992
      8          1           0       -2.380167   -1.344634    0.533992
      9          1           0       -0.958887    0.124756   -1.732453
     10          1           0       -2.671005    0.159466   -1.333953
     11          1           0       -1.626862    2.236793   -0.501010
     12          1           0       -2.127961    1.249885    0.852433
     13          1           0        0.691966    1.811907   -0.138111
     14          1           0        0.055237    1.903479    1.489434
     15          1           0        1.248264   -0.082091    1.707832
     16          8           0        1.269023   -0.635776   -0.287158
     17          8           0        2.687404    0.295788   -0.609733
     18          1           0        3.261513   -0.480163   -0.655510
     19          1           0       -0.005032   -2.149101    1.210772
 ---------------------------------------------------------------------

 SCF Done:  E(UB3LYP) =  -385.686605206     A.U. after    1 cycles

 The electronic state is 2-A.
 Alpha  occ. eigenvalues --  -19.15895 -19.13142 -10.23039 -10.22538 -10.19029
 Alpha  occ. eigenvalues --  -10.17393 -10.17300 -10.16800  -1.03346  -0.93805
 Alpha  occ. eigenvalues --   -0.82732  -0.75997  -0.72731  -0.63110  -0.61673
 Alpha  occ. eigenvalues --   -0.53639  -0.51715  -0.47761  -0.46569  -0.44583
 Alpha  occ. eigenvalues --   -0.42724  -0.40840  -0.40370  -0.40077  -0.37281
 Alpha  occ. eigenvalues --   -0.36222  -0.34334  -0.32476  -0.32079  -0.29379
 Alpha  occ. eigenvalues --   -0.25764  -0.21971
 Alpha virt. eigenvalues --   -0.03836   0.02723   0.05683   0.05999   0.06454
 Alpha virt. eigenvalues --    0.07661   0.08994   0.09257   0.10932   0.11100
 Alpha virt. eigenvalues --    0.13026   0.14268   0.15639   0.17735   0.19409

  Beta  occ. eigenvalues --  -19.16051 -19.11789 -10.23104 -10.21588 -10.19077
  Beta  occ. eigenvalues --  -10.17390 -10.17300 -10.16794  -1.02823  -0.91176
  Beta  occ. eigenvalues --   -0.82376  -0.75536  -0.72119  -0.62610  -0.61458
  Beta  occ. eigenvalues --   -0.53206  -0.51328  -0.46930  -0.46327  -0.44205
  Beta  occ. eigenvalues --   -0.41996  -0.40619  -0.40077  -0.39504  -0.37000
  Beta  occ. eigenvalues --   -0.34985  -0.34027  -0.32420  -0.30807  -0.28760
  Beta  occ. eigenvalues --   -0.25137
  Beta virt. eigenvalues --   -0.10033  -0.00009   0.02793   0.05835   0.06049
  Beta virt. eigenvalues --    0.06564   0.08107   0.09150   0.09403   0.11062
  Beta virt. eigenvalues --    0.11163   0.13129   0.14426   0.15791   0.17895

 Mulliken charges and spin densities:
               1          2
     1  C   -0.087394   0.645862
     2  C    0.161772  -0.022333
     3  C   -0.176282   0.001293
     4  C   -0.177231  -0.000544
     5  C   -0.147889   0.003284
     6  C   -0.151755  -0.033417
     7  H    0.103722   0.022597
     8  H    0.095499   0.037797
     9  H    0.097119   0.000966
    10  H    0.092841  -0.000338
    11  H    0.095886   0.000039
    12  H    0.074966   0.000325
    13  H    0.112623   0.001563
    14  H    0.084248   0.000023
    15  H    0.078116   0.007262
    16  O   -0.278040  -0.130944
    17  O   -0.322807   0.489716
    18  H    0.211093  -0.005633
    19  H    0.133515  -0.017519
 Sum of Mulliken charges =  -0.00000   1.00000

 Dipole moment (field-independent basis, Debye):
    X=             -2.0699    Y=             -1.2801    Z=              1.4313  Tot=              2.8235
 Quadrupole moment (field-independent basis, Debye-Ang):
   XX=            -48.7611   YY=            -47.4729   ZZ=            -49.2454
   XY=             -2.3092   XZ=              1.5907   YZ=             -0.3149

  Exact polarizability: 111.433  11.201  79.726  -6.931  -3.002  70.349
 Approx polarizability: 165.072  27.988 116.338 -24.666 -10.044 110.042

 ******    1 imaginary frequencies (negative Signs) ******

                      1                      2                      3
                      A                      A                      A
 Frequencies --   -682.2688                70.4393               124.0898
 Red. masses --     12.1851                 3.6485                 2.1856
 Frc consts  --      3.3419                 0.0107                 0.0198
 IR Inten    --    206.8835                 2.2623                16.7424

                      4                      5                      6
                      A                      A                      A
 Frequencies --    139.2454               154.1480               264.0097
 Red. masses --      1.5805                 2.0395                 4.6946
 Frc consts  --      0.0181                 0.0286                 0.1928
 IR Inten    --     59.8063                19.6919                 5.8765

                      7                      8                      9
                      A                      A                      A
 Frequencies --    289.2933               380.0902               408.7250
 Red. masses --      1.6671                 3.4096                 4.3185
 Frc consts  --      0.0822                 0.2902                 0.4251
 IR Inten    --      0.6152                14.7618                 5.4201

                     10                     11                     12
                      A                      A                      A
 Frequencies --    456.9549               520.2651               663.3137
 Red. masses --      2.2961                 3.4523                 1.3888
 Frc consts  --      0.2825                 0.5506                 0.3600
 IR Inten    --      1.1107                 2.8644                13.8505

                     13                     14                     15
                      A                      A                      A
 Frequencies --    704.4083               798.3671               816.9442
 Red. masses --      1.6864                 2.9757                 1.7049
 Frc consts  --      0.4930                 1.1175                 0.6704
 IR Inten    --      2.5715                 3.7687                 5.3278

                     16                     17                     18
                      A                      A                      A
 Frequencies --    850.9887               872.3261               888.8443
 Red. masses --      2.3194                 2.3159                 2.0292
 Frc consts  --      0.9896                 1.0383                 0.9445
 IR Inten    --      1.6623                 1.7127                13.7274

                     19                     20                     21
                      A                      A                      A
 Frequencies --    957.1673               997.8799              1007.9818
 Red. masses --      1.4654                 1.7754                 2.3197
 Frc consts  --      0.7910                 1.0416                 1.3886
 IR Inten    --     51.3469                19.8762                19.4579

                     22                     23                     24
                      A                      A                      A
 Frequencies --   1050.1419              1057.3020              1083.0810
 Red. masses --      1.7167                 1.7987                 1.7321
 Frc consts  --      1.1154                 1.1847                 1.1972
 IR Inten    --      1.4743                 4.2841                 2.4290

                     25                     26                     27
                      A                      A                      A
 Frequencies --   1143.1282              1171.0744              1198.0060
 Red. masses --      1.0667                 1.3868                 1.7227
 Frc consts  --      0.8212                 1.1205                 1.4567
 IR Inten    --      0.9742                 3.1340                 4.3964

                     28                     29                     30
                      A                      A                      A
 Frequencies --   1259.5371              1290.0996              1305.4877
 Red. masses --      1.3143                 1.2577                 1.2380
 Frc consts  --      1.2285                 1.2333                 1.2431
 IR Inten    --      3.1870                 0.6069                 1.2216

                     31                     32                     33
                      A                      A                      A
 Frequencies --   1359.6124              1361.3637              1365.0399
 Red. masses --      1.3247                 1.3994                 1.7030
 Frc consts  --      1.4428                 1.5280                 1.8697
 IR Inten    --      1.2065                 6.9479                 0.8124

                     34                     35                     36
                      A                      A                      A
 Frequencies --   1389.0275              1407.4392              1416.3649
 Red. masses --      1.5262                 1.4604                 1.8010
 Frc consts  --      1.7349                 1.7044                 2.1286
 IR Inten    --      1.2144                 1.5513                15.7068

                     37                     38                     39
                      A                      A                      A
 Frequencies --   1454.1175              1485.2250              1496.2610
 Red. masses --      1.1061                 1.0839                 1.0875
 Frc consts  --      1.3780                 1.4088                 1.4345
 IR Inten    --      9.2514                 5.8928                 7.0151

                     40                     41                     42
                      A                      A                      A
 Frequencies --   1504.8415              2941.5466              3002.8438
 Red. masses --      1.0925                 1.0735                 1.0706
 Frc consts  --      1.4576                 5.4725                 5.6876
 IR Inten    --      3.9556                17.2640                29.6145

                     43                     44                     45
                      A                      A                      A
 Frequencies --   3016.4412              3025.3572              3040.3076
 Red. masses --      1.0817                 1.0816                 1.0636
 Frc consts  --      5.7989                 5.8326                 5.7927
 IR Inten    --     15.8599                23.4101                20.7186

                     46                     47                     48
                      A                      A                      A
 Frequencies --   3046.2904              3060.5019              3077.6156
 Red. masses --      1.0677                 1.0896                 1.1046
 Frc consts  --      5.8379                 6.0129                 6.1643
 IR Inten    --     66.9057                37.2700                22.8747

                     49                     50                     51
                      A                      A                      A
 Frequencies --   3087.5863              3189.8777              3787.3882
 Red. masses --      1.1000                 1.0892                 1.0679
 Frc consts  --      6.1784                 6.5300                 9.0251
 IR Inten    --     20.3378                12.0440                49.0947

 - Thermochemistry -
 -------------------
 Temperature   298.150 Kelvin.  Pressure   1.00000 Atm.
 Atom     1 has atomic number  6 and mass  12.00000

 Molecular mass:   115.07590 amu.
 Principal axes and moments of inertia in atomic units:
                           1         2         3
     Eigenvalues --   567.244291131.926201347.95019
           X            0.99981  -0.00559   0.01861
           Y            0.00540   0.99994   0.00990
           Z           -0.01866  -0.00980   0.99978
 This molecule is an asymmetric top.
 Rotational symmetry number  1.
 Warning -- assumption of classical behavior for rotation
           may cause significant error
 Rotational temperatures (Kelvin)      0.15269     0.07652     0.06426
 Rotational constants (GHZ):           3.18159     1.59440     1.33888
    1 imaginary frequencies ignored.
 Zero-point vibrational energy     421315.1 (Joules/Mol)
                                  100.69673 (Kcal/Mol)
 Warning -- explicit consideration of  10 degrees of freedom as
           vibrations may cause significant error
 Vibrational temperatures:    101.35   178.54   200.34   221.78   379.85
          (Kelvin)            416.23   546.87   588.06   657.46   748.55
                              954.36  1013.49  1148.67  1175.40  1224.38
                             1255.08  1278.85  1377.15  1435.73  1450.26
                             1510.92  1521.22  1558.31  1644.71  1684.91
                             1723.66  1812.19  1856.17  1878.31  1956.18
                             1958.70  1963.99  1998.50  2024.99  2037.83
                             2092.15  2136.91  2152.79  2165.13  4232.23
                             4320.42  4339.99  4352.81  4374.32  4382.93
                             4403.38  4428.00  4442.35  4589.52  5449.21

 Zero-point correction=                           0.160470 (Hartree/Particle)
 Thermal correction to Energy=                    0.169019
 Thermal correction to Enthalpy=                  0.169964
 Thermal correction to Gibbs Free Energy=         0.126594
 Sum of electronic and zero-point Energies=           -385.526135
 Sum of electronic and thermal Energies=              -385.517586
 Sum of electronic and thermal Enthalpies=            -385.516642
 Sum of electronic and thermal Free Energies=         -385.560011

                     E (Thermal)             CV                S
                      KCal/Mol        Cal/Mol-Kelvin    Cal/Mol-Kelvin
 Total                  106.061             31.490             91.278
 Electronic               0.000              0.000              1.377
 Translational            0.889              2.981             40.137
 Rotational               0.889              2.981             28.250
 Vibrational            104.284             25.528             21.514
 Vibration     1          0.598              1.968              4.141
 Vibration     2          0.610              1.929              3.036
 Vibration     3          0.615              1.914              2.814
 Vibration     4          0.620              1.898              2.620
 Vibration     5          0.671              1.739              1.635
 Vibration     6          0.686              1.694              1.478
 Vibration     7          0.750              1.513              1.039
 Vibration     8          0.773              1.451              0.931
 Vibration     9          0.815              1.346              0.775
 Vibration    10          0.875              1.205              0.609

 Optimization completed.
    -- Stationary point found.
 Normal termination of Gaussian 16 at Tue May 10 20:22:00 2022.
