 Gaussian 16, Revision B.01,
 Gaussian 16:  ES64L-G16RevB.01 20-Dec-2017

 ----------------------------------------------------------------------
 # opt=(calcfc,ts,noeigentest) freq ub3lyp cc-pvtz+d int(grid=ultrafine
 )
 ----------------------------------------------------------------------

 ---------------------------------
 RcyclohexylO2-H-Shift-TS3-b3lyp-c
 ---------------------------------
 Symbolic Z-matrix:
 Charge =  0 Multiplicity = 2

 SCF Done:  E(UB3LYP) =  -385.671663142     A.U. after   22 cycles
 SCF Done:  E(UB3LYP) =  -385.668774936     A.U. after   19 cycles
 SCF Done:  E(UB3LYP) =  -385.668141243     A.U. after   15 cycles
 SCF Done:  E(UB3LYP) =  -385.667101031     A.U. after   19 cycles
 SCF Done:  E(UB3LYP) =  -385.668828482     A.U. after   18 cycles
 SCF Done:  E(UB3LYP) =  -385.669062553     A.U. after   15 cycles
 SCF Done:  E(UB3LYP) =  -385.668333949     A.U. after   18 cycles
 SCF Done:  E(UB3LYP) =  -385.669134782     A.U. after   15 cycles
 SCF Done:  E(UB3LYP) =  -385.669239691     A.U. after   14 cycles
 SCF Done:  E(UB3LYP) =  -385.669271450     A.U. after   12 cycles
 SCF Done:  E(UB3LYP) =  -385.669271778     A.U. after   11 cycles
 SCF Done:  E(UB3LYP) =  -385.669272177     A.U. after    9 cycles
 SCF Done:  E(UB3LYP) =  -385.669272238     A.U. after   10 cycles
 SCF Done:  E(UB3LYP) =  -385.669272199     A.U. after    9 cycles
 Optimization completed.
    -- Stationary point found.
 Normal termination of Gaussian 16 at Mon May  9 12:18:28 2022.

 ---------------------------------------------------------------------
 #N Geom=AllCheck Guess=TCheck SCRF=Check GenChk UB3LYP/CC-pVTZ+d Freq
 ---------------------------------------------------------------------

 Structure from the checkpoint file:  "RcyclohexylO2-H-Shift-TS3-b3lyp-c.chk"
 ---------------------------------
 RcyclohexylO2-H-Shift-TS3-b3lyp-c
 ---------------------------------
 Charge =  0 Multiplicity = 2

                         Standard orientation:
 ---------------------------------------------------------------------
 Center     Atomic      Atomic             Coordinates (Angstroms)
 Number     Number       Type             X           Y           Z
 ---------------------------------------------------------------------
      1          6           0        0.302689    0.937921    0.315330
      2          6           0        0.612007   -0.436474   -0.257855
      3          6           0       -0.422156   -1.453410    0.192521
      4          6           0       -1.801921   -0.940327   -0.265911
      5          6           0       -2.106258    0.492955    0.201763
      6          6           0       -0.988961    1.505499   -0.181212
      7          1           0       -1.208358    2.480545    0.254962
      8          1           0       -0.968000    1.624688   -1.268009
      9          1           0       -2.223466    0.501892    1.288791
     10          1           0       -3.056951    0.825968   -0.219148
     11          1           0       -2.580763   -1.613882    0.095171
     12          1           0       -1.846408   -0.978103   -1.358384
     13          1           0       -0.389469   -1.552663    1.279932
     14          1           0       -0.216256   -2.435542   -0.236890
     15          1           0        0.622633   -0.375484   -1.353170
     16          8           0        1.938293   -0.681050    0.200071
     17          8           0        2.597731    0.517321   -0.186821
     18          1           0        1.595818    1.236205   -0.019179
     19          1           0        0.410628    0.959225    1.402103
 ---------------------------------------------------------------------

 SCF Done:  E(UB3LYP) =  -385.669272199     A.U. after    1 cycles

 The electronic state is 2-A.
 Alpha  occ. eigenvalues --  -19.19043 -19.17941 -10.23781 -10.20289 -10.19154
 Alpha  occ. eigenvalues --  -10.19087 -10.18919 -10.18823  -1.12892  -0.88595
 Alpha  occ. eigenvalues --   -0.84394  -0.76644  -0.74913  -0.64032  -0.61384
 Alpha  occ. eigenvalues --   -0.58124  -0.53422  -0.48444  -0.47781  -0.46704
 Alpha  occ. eigenvalues --   -0.44217  -0.43627  -0.42007  -0.39855  -0.37898
 Alpha  occ. eigenvalues --   -0.37087  -0.36210  -0.34779  -0.33325  -0.32576
 Alpha  occ. eigenvalues --   -0.25701  -0.24013
 Alpha virt. eigenvalues --    0.02480   0.03460   0.03833   0.05443   0.06779
 Alpha virt. eigenvalues --    0.09099   0.09631   0.10308   0.10494   0.11252
 Alpha virt. eigenvalues --    0.12026   0.13677   0.15678   0.17855   0.18249

  Beta  occ. eigenvalues --  -19.18843 -19.16722 -10.23773 -10.19451 -10.19114
  Beta  occ. eigenvalues --  -10.19053 -10.18920 -10.18794  -1.11689  -0.87046
  Beta  occ. eigenvalues --   -0.83415  -0.76061  -0.74238  -0.63571  -0.60836
  Beta  occ. eigenvalues --   -0.57796  -0.52049  -0.48014  -0.47131  -0.46384
  Beta  occ. eigenvalues --   -0.43558  -0.42785  -0.40913  -0.38857  -0.37276
  Beta  occ. eigenvalues --   -0.36674  -0.35475  -0.34653  -0.32134  -0.31763
  Beta  occ. eigenvalues --   -0.24013
  Beta virt. eigenvalues --   -0.12708   0.02607   0.03699   0.04361   0.05555
  Beta virt. eigenvalues --    0.06920   0.09229   0.09707   0.10353   0.10623
  Beta virt. eigenvalues --    0.11478   0.12129   0.14063   0.16471   0.18346

 Mulliken charges and spin densities:
               1          2
     1  C   -0.182539   0.523912
     2  C    0.158164   0.005328
     3  C   -0.191217   0.011305
     4  C   -0.183467   0.000349
     5  C   -0.169458   0.036670
     6  C   -0.182561  -0.020034
     7  H    0.105219   0.004726
     8  H    0.092283   0.006002
     9  H    0.089323  -0.000282
    10  H    0.102050   0.007396
    11  H    0.102671  -0.000097
    12  H    0.087595   0.000513
    13  H    0.088524  -0.001520
    14  H    0.107444   0.009091
    15  H    0.064822  -0.001719
    16  O   -0.156271   0.057080
    17  O   -0.229002   0.403110
    18  H    0.185558  -0.037739
    19  H    0.110862  -0.004088
 Sum of Mulliken charges =  -0.00000   1.00000

 Dipole moment (field-independent basis, Debye):
    X=             -3.9928    Y=              0.2915    Z=             -0.0978  Tot=              4.0047
 Quadrupole moment (field-independent basis, Debye-Ang):
   XX=            -58.4225   YY=            -48.2242   ZZ=            -48.9296
   XY=              0.4496   XZ=             -0.2375   YZ=              0.6857

  Exact polarizability: 102.015  -2.607  80.204  -2.123   0.880  65.519
 Approx polarizability: 145.542  -3.787 117.601  -4.200  -0.702 102.745

 ******    1 imaginary frequencies (negative Signs) ******

                      1                      2                      3
                      A                      A                      A
 Frequencies --  -2178.1664               156.3939               211.5943
 Red. masses --      1.0875                 3.1394                 3.0703
 Frc consts  --      3.0398                 0.0452                 0.0810
 IR Inten    --    695.4123                 1.7158                 0.6307

                      4                      5                      6
                      A                      A                      A
 Frequencies --    288.0581               315.8147               336.7960
 Red. masses --      2.8024                 2.5850                 2.5515
 Frc consts  --      0.1370                 0.1519                 0.1705
 IR Inten    --      0.3653                 1.0060                 1.1940

                      7                      8                      9
                      A                      A                      A
 Frequencies --    396.7274               469.5729               509.6141
 Red. masses --      4.3545                 2.7295                 2.7157
 Frc consts  --      0.4038                 0.3546                 0.4155
 IR Inten    --      1.4963                 0.2659                 1.9447

                     10                     11                     12
                      A                      A                      A
 Frequencies --    582.0763               658.8706               797.6305
 Red. masses --      1.8773                 4.8661                 2.1861
 Frc consts  --      0.3748                 1.2446                 0.8194
 IR Inten    --      5.0916                 5.0769                 0.6305

                     13                     14                     15
                      A                      A                      A
 Frequencies --    821.5081               837.0219               892.3221
 Red. masses --      1.7906                 1.9643                 2.1396
 Frc consts  --      0.7120                 0.8108                 1.0038
 IR Inten    --      0.6010                 1.5317                24.8221

                     16                     17                     18
                      A                      A                      A
 Frequencies --    910.5860               930.6988               947.7515
 Red. masses --      2.4291                 1.9597                 1.8630
 Frc consts  --      1.1867                 1.0002                 0.9859
 IR Inten    --      5.0146                16.0353                 1.6101

                     19                     20                     21
                      A                      A                      A
 Frequencies --    974.1276              1040.5129              1051.9244
 Red. masses --      2.6508                 2.0858                 2.1319
 Frc consts  --      1.4821                 1.3305                 1.3899
 IR Inten    --      8.5010                 3.0007                 1.7682

                     22                     23                     24
                      A                      A                      A
 Frequencies --   1059.1881              1094.9272              1147.8896
 Red. masses --      1.6936                 2.4984                 1.7826
 Frc consts  --      1.1194                 1.7647                 1.3839
 IR Inten    --      2.3797                20.5330                 1.5564

                     25                     26                     27
                      A                      A                      A
 Frequencies --   1170.4303              1190.7421              1200.6941
 Red. masses --      2.0567                 1.2674                 1.3360
 Frc consts  --      1.6600                 1.0587                 1.1348
 IR Inten    --      6.4035                 6.1134                23.2890

                     28                     29                     30
                      A                      A                      A
 Frequencies --   1262.4362              1268.0694              1309.4695
 Red. masses --      1.2819                 1.3341                 1.2937
 Frc consts  --      1.2037                 1.2639                 1.3070
 IR Inten    --      6.4091                 1.1854                 2.6095

                     31                     32                     33
                      A                      A                      A
 Frequencies --   1336.0935              1343.4117              1365.1512
 Red. masses --      1.2086                 1.2501                 1.3751
 Frc consts  --      1.2712                 1.3293                 1.5099
 IR Inten    --      0.7884                 3.7908                 0.1006

                     34                     35                     36
                      A                      A                      A
 Frequencies --   1374.7062              1388.1256              1398.3576
 Red. masses --      1.3473                 1.3637                 1.5060
 Frc consts  --      1.5001                 1.5482                 1.7351
 IR Inten    --      1.8763                 1.2496                 5.6045

                     37                     38                     39
                      A                      A                      A
 Frequencies --   1489.5444              1492.5293              1498.5046
 Red. masses --      1.0887                 1.0910                 1.1059
 Frc consts  --      1.4232                 1.4319                 1.4631
 IR Inten    --      4.0413                 5.0062                 8.8425

                     40                     41                     42
                      A                      A                      A
 Frequencies --   1506.3188              1737.0515              2981.6498
 Red. masses --      1.1016                 1.0363                 1.0816
 Frc consts  --      1.4726                 1.8423                 5.6654
 IR Inten    --      0.5819                24.9467                22.7304

                     43                     44                     45
                      A                      A                      A
 Frequencies --   3015.2339              3019.6568              3023.0462
 Red. masses --      1.0707                 1.0647                 1.0602
 Frc consts  --      5.7351                 5.7199                 5.7084
 IR Inten    --     17.4911                21.5169                26.3355

                     46                     47                     48
                      A                      A                      A
 Frequencies --   3031.6298              3054.9007              3061.3475
 Red. masses --      1.0591                 1.0840                 1.0937
 Frc consts  --      5.7353                 5.9604                 6.0392
 IR Inten    --     15.7747                10.8065                42.4386

                     49                     50                     51
                      A                      A                      A
 Frequencies --   3065.0021              3074.7051              3078.9996
 Red. masses --      1.0984                 1.1041                 1.1014
 Frc consts  --      6.0797                 6.1498                 6.1518
 IR Inten    --     36.9591                 7.5544                72.9250

 - Thermochemistry -
 -------------------
 Temperature   298.150 Kelvin.  Pressure   1.00000 Atm.
 Atom     1 has atomic number  6 and mass  12.00000

 Molecular mass:   115.07590 amu.
 Principal axes and moments of inertia in atomic units:
                           1         2         3
     Eigenvalues --   468.500241161.808621514.80052
           X            0.99999   0.00494   0.00088
           Y           -0.00494   0.99997   0.00633
           Z           -0.00084  -0.00634   0.99998
 This molecule is an asymmetric top.
 Rotational symmetry number  1.
 Warning -- assumption of classical behavior for rotation
           may cause significant error
 Rotational temperatures (Kelvin)      0.18487     0.07455     0.05718
 Rotational constants (GHZ):           3.85217     1.55339     1.19141
    1 imaginary frequencies ignored.
 Zero-point vibrational energy     419706.3 (Joules/Mol)
                                  100.31221 (Kcal/Mol)
 Warning -- explicit consideration of   9 degrees of freedom as
           vibrations may cause significant error
 Vibrational temperatures:    225.02   304.44   414.45   454.39   484.57
          (Kelvin)            570.80   675.61   733.22   837.48   947.97
                             1147.61  1181.97  1204.29  1283.85  1310.13
                             1339.07  1363.60  1401.55  1497.07  1513.48
                             1523.94  1575.36  1651.56  1683.99  1713.21
                             1727.53  1816.36  1824.47  1884.03  1922.34
                             1932.87  1964.15  1977.90  1997.20  2011.92
                             2143.12  2147.42  2156.01  2167.26  2499.23
                             4289.93  4338.25  4344.61  4349.49  4361.84
                             4395.32  4404.60  4409.85  4423.81  4429.99

 Zero-point correction=                           0.159858 (Hartree/Particle)
 Thermal correction to Energy=                    0.166916
 Thermal correction to Enthalpy=                  0.167860
 Thermal correction to Gibbs Free Energy=         0.128181
 Sum of electronic and zero-point Energies=           -385.509415
 Sum of electronic and thermal Energies=              -385.502357
 Sum of electronic and thermal Enthalpies=            -385.501412
 Sum of electronic and thermal Free Energies=         -385.541091

                     E (Thermal)             CV                S
                      KCal/Mol        Cal/Mol-Kelvin    Cal/Mol-Kelvin
 Total                  104.741             28.452             83.511
 Electronic               0.000              0.000              1.377
 Translational            0.889              2.981             40.137
 Rotational               0.889              2.981             28.202
 Vibrational            102.964             22.490             13.795
 Vibration     1          0.620              1.896              2.593
 Vibration     2          0.643              1.823              2.030
 Vibration     3          0.685              1.696              1.485
 Vibration     4          0.703              1.643              1.332
 Vibration     5          0.718              1.602              1.227
 Vibration     6          0.763              1.477              0.975
 Vibration     7          0.827              1.318              0.739
 Vibration     8          0.865              1.229              0.635
 Vibration     9          0.939              1.070              0.482

 Optimization completed.
    -- Stationary point found.
 Normal termination of Gaussian 16 at Mon May  9 12:26:07 2022.
