 Gaussian 16, Revision C.01,
 Gaussian 16:  ES64L-G16RevC.01  3-Jul-2019

 ----------------------------------------------------------------------
 #p B3LYP/cc-PVTZ scf(verytight, maxcycles=1000) opt(calcfc, maxcyc=100
 0) freq(hpmodes) int(grid=ultrafine)
 ----------------------------------------------------------------------

 ------
 Mol_01
 ------
 Symbolic Z-matrix:
 Charge =  0 Multiplicity = 2

 SCF Done:  E(UB3LYP) =  -197.163045972     A.U. after   13 cycles
 SCF Done:  E(UB3LYP) =  -197.172807035     A.U. after   12 cycles
 SCF Done:  E(UB3LYP) =  -197.174827071     A.U. after   11 cycles
 SCF Done:  E(UB3LYP) =  -197.175530648     A.U. after   11 cycles
 SCF Done:  E(UB3LYP) =  -197.175605343     A.U. after    9 cycles
 SCF Done:  E(UB3LYP) =  -197.175608274     A.U. after    7 cycles
 Optimization completed.
    -- Stationary point found.
 Normal termination of Gaussian 16 at Tue Apr 12 16:11:43 2022.

 -------------------------------------------------------------------
 #P Geom=AllCheck Guess=TCheck SCRF=Check GenChk UB3LYP/CC-pVTZ Freq
 -------------------------------------------------------------------

 Structure from the checkpoint file:  "Mol_01.chk"
 ------
 Mol_01
 ------
 Charge =  0 Multiplicity = 2

                         Standard orientation:
 ---------------------------------------------------------------------
 Center     Atomic      Atomic             Coordinates (Angstroms)
 Number     Number       Type             X           Y           Z
 ---------------------------------------------------------------------
      1          6           0       -0.000005    1.320684   -0.753285
      2          6           0        0.000000   -0.001686    0.054897
      3          6           0        1.258699   -0.808909   -0.308833
      4          6           0       -1.258695   -0.808916   -0.308832
      5          6           0       -0.000000    0.314303    1.517295
      6          1           0        0.882453    1.919408   -0.523874
      7          1           0       -0.882466    1.919403   -0.523873
      8          1           0       -0.000004    1.112215   -1.826312
      9          1           0        0.926270    0.515943    2.038541
     10          1           0       -0.926271    0.515943    2.038541
     11          1           0       -2.164819   -0.254131   -0.058074
     12          1           0       -1.284921   -1.756526    0.231099
     13          1           0       -1.284964   -1.027242   -1.378262
     14          1           0        2.164820   -0.254117   -0.058076
     15          1           0        1.284969   -1.027234   -1.378263
     16          1           0        1.284933   -1.756518    0.231098
 ---------------------------------------------------------------------

 SCF Done:  E(UB3LYP) =  -197.175608274     A.U. after    1 cycles

 The electronic state is 2-A.
 Alpha  occ. eigenvalues --  -10.19116 -10.17473 -10.16266 -10.16013 -10.16013
 Alpha  occ. eigenvalues --   -0.82531  -0.68744  -0.68695  -0.67627  -0.53627
 Alpha  occ. eigenvalues --   -0.45655  -0.45481  -0.44032  -0.41198  -0.39337
 Alpha  occ. eigenvalues --   -0.37328  -0.36713  -0.33962  -0.33738  -0.32728
 Alpha  occ. eigenvalues --   -0.20649
 Alpha virt. eigenvalues --    0.03105   0.07850   0.08037   0.08596   0.08863
 Alpha virt. eigenvalues --    0.09572   0.10522   0.12432   0.14003   0.14685
 Alpha virt. eigenvalues --    0.15517   0.16304   0.17695   0.19076   0.19172

  Beta  occ. eigenvalues --  -10.19189 -10.16135 -10.16083 -10.15980 -10.15980
  Beta  occ. eigenvalues --   -0.81923  -0.68684  -0.68445  -0.64937  -0.52997
  Beta  occ. eigenvalues --   -0.45270  -0.45203  -0.43644  -0.40882  -0.38951
  Beta  occ. eigenvalues --   -0.37067  -0.36666  -0.33361  -0.33134  -0.32617
  Beta virt. eigenvalues --   -0.05774   0.03198   0.07910   0.08189   0.08955
  Beta virt. eigenvalues --    0.09242   0.09612   0.10713   0.12518   0.14122
  Beta virt. eigenvalues --    0.14809   0.15569   0.16295   0.17837   0.19118

 Mulliken charges and spin densities:
               1          2
     1  C   -0.278752   0.032389
     2  C    0.139659  -0.053890
     3  C   -0.291036   0.007835
     4  C   -0.291036   0.007835
     5  C   -0.309476   1.040753
     6  H    0.091011   0.001052
     7  H    0.091011   0.001052
     8  H    0.087024   0.016388
     9  H    0.111914  -0.031368
    10  H    0.111914  -0.031368
    11  H    0.088318   0.000015
    12  H    0.093227   0.002516
    13  H    0.087338   0.002129
    14  H    0.088318   0.000015
    15  H    0.087338   0.002129
    16  H    0.093227   0.002516
 Sum of Mulliken charges =   0.00000   1.00000

 Dipole moment (field-independent basis, Debye):
    X=             -0.0000    Y=              0.0909    Z=             -0.2223  Tot=              0.2402
 Quadrupole moment (field-independent basis, Debye-Ang):
   XX=            -34.4852   YY=            -35.6493   ZZ=            -35.1774
   XY=              0.0000   XZ=              0.0000   YZ=              0.4345

  Exact polarizability:      62.251       0.000      60.315       0.000       0.195      62.677
 Approx polarizability:      83.642       0.000      81.043       0.000       0.317      86.083

                      1                      2                      3
                      A                      A                      A
 Frequencies --    106.5750               223.5441               271.5708
 Red. masses --      1.0206                 1.0149                 1.0322
 Frc consts  --      0.0068                 0.0299                 0.0449
 IR Inten    --      0.1692                 0.0025                 0.0324

                      4                      5                      6
                      A                      A                      A
 Frequencies --    276.4896               309.0223               330.4343
 Red. masses --      1.0312                 1.9122                 2.2219
 Frc consts  --      0.0464                 0.1076                 0.1429
 IR Inten    --      0.0023                 2.6591                 0.0377

                      7                      8                      9
                      A                      A                      A
 Frequencies --    389.5571               415.5578               417.3262
 Red. masses --      1.8236                 2.0624                 2.1504
 Frc consts  --      0.1631                 0.2098                 0.2207
 IR Inten    --      4.8471                 0.0753                 0.1207

                     10                     11                     12
                      A                      A                      A
 Frequencies --    554.9511               736.9411               906.1956
 Red. masses --      1.8836                 3.5912                 1.8802
 Frc consts  --      0.3418                 1.1491                 0.9097
 IR Inten    --     35.4500                 0.0763                 0.0235

                     13                     14                     15
                      A                      A                      A
 Frequencies --    911.9028               947.2156               952.2161
 Red. masses --      2.0612                 1.9241                 1.2534
 Frc consts  --      1.0099                 1.0171                 0.6696
 IR Inten    --      0.0722                 1.7058                 0.5289

                     16                     17                     18
                      A                      A                      A
 Frequencies --    962.0325              1031.4285              1076.6879
 Red. masses --      1.1994                 1.3906                 1.3582
 Frc consts  --      0.6540                 0.8716                 0.9277
 IR Inten    --      0.0027                 0.4763                 0.2808

                     19                     20                     21
                      A                      A                      A
 Frequencies --   1200.1347              1264.3617              1278.0764
 Red. masses --      2.3672                 2.7690                 2.7098
 Frc consts  --      2.0088                 2.6080                 2.6080
 IR Inten    --      5.0107                 1.9923                 4.2162

                     22                     23                     24
                      A                      A                      A
 Frequencies --   1391.7524              1399.1188              1419.7938
 Red. masses --      1.2002                 1.2200                 1.2046
 Frc consts  --      1.3697                 1.4071                 1.4307
 IR Inten    --      5.1947                 6.9446                 2.6824

                     25                     26                     27
                      A                      A                      A
 Frequencies --   1465.5041              1480.7889              1487.2601
 Red. masses --      1.1713                 1.0487                 1.0470
 Frc consts  --      1.4822                 1.3549                 1.3645
 IR Inten    --      0.6625                 0.0930                 0.4682

                     28                     29                     30
                      A                      A                      A
 Frequencies --   1489.1176              1503.1149              1504.4361
 Red. masses --      1.0444                 1.0555                 1.0498
 Frc consts  --      1.3645                 1.4050                 1.3999
 IR Inten    --      0.0470                 6.6004                 7.1995

                     31                     32                     33
                      A                      A                      A
 Frequencies --   1519.1660              3012.6404              3017.4487
 Red. masses --      1.0697                 1.0353                 1.0337
 Frc consts  --      1.4545                 5.5360                 5.5454
 IR Inten    --      9.7287                30.2348                37.3666

                     34                     35                     36
                      A                      A                      A
 Frequencies --   3023.6726              3074.5707              3078.5879
 Red. masses --      1.0349                 1.0995                 1.1023
 Frc consts  --      5.5748                 6.1235                 6.1551
 IR Inten    --     17.1115                 5.3786                 9.7403

                     37                     38                     39
                      A                      A                      A
 Frequencies --   3083.3933              3084.2489              3088.7211
 Red. masses --      1.1005                 1.1026                 1.1014
 Frc consts  --      6.1646                 6.1796                 6.1911
 IR Inten    --     69.0603                 1.0153                55.7881

                     40                     41                     42
                      A                      A                      A
 Frequencies --   3091.1544              3127.4082              3227.6421
 Red. masses --      1.1022                 1.0504                 1.1184
 Frc consts  --      6.2051                 6.0532                 6.8646
 IR Inten    --     40.6187                17.2565                15.5534

 - Thermochemistry -
 -------------------
 Temperature   298.150 Kelvin.  Pressure   1.00000 Atm.
 Atom     1 has atomic number  6 and mass  12.00000

 Molecular mass:    71.08608 amu.
 Principal axes and moments of inertia in atomic units:
                           1         2         3
     Eigenvalues --   387.38977 394.22757 403.29855
           X            1.00000   0.00000   0.00000
           Y           -0.00000   0.99904   0.04382
           Z            0.00000  -0.04382   0.99904
 This molecule is an asymmetric top.
 Rotational symmetry number  1.
 Rotational temperatures (Kelvin)      0.22358     0.21971     0.21476
 Rotational constants (GHZ):           4.65872     4.57792     4.47495
 Zero-point vibrational energy     377611.8 (Joules/Mol)
                                   90.25138 (Kcal/Mol)
 Warning -- explicit consideration of  10 degrees of freedom as
           vibrations may cause significant error
 Vibrational temperatures:    153.34   321.63   390.73   397.81   444.61
          (Kelvin)            475.42   560.49   597.89   600.44   798.45
                             1060.29  1303.81  1312.02  1362.83  1370.03
                             1384.15  1484.00  1549.11  1726.73  1819.13
                             1838.87  2002.42  2013.02  2042.77  2108.53
                             2130.52  2139.84  2142.51  2162.65  2164.55
                             2185.74  4334.52  4341.44  4350.39  4423.62
                             4429.40  4436.32  4437.55  4443.98  4447.48
                             4499.64  4643.86

 Zero-point correction=                           0.143825 (Hartree/Particle)
 Thermal correction to Energy=                    0.151192
 Thermal correction to Enthalpy=                  0.152136
 Thermal correction to Gibbs Free Energy=         0.113489
 Sum of electronic and zero-point Energies=           -197.031784
 Sum of electronic and thermal Energies=              -197.024416
 Sum of electronic and thermal Enthalpies=            -197.023472
 Sum of electronic and thermal Free Energies=         -197.062119

                     E (Thermal)             CV                S
                      KCal/Mol        Cal/Mol-Kelvin    Cal/Mol-Kelvin
 Total                   94.874             26.972             81.339
 Electronic               0.000              0.000              1.377
 Translational            0.889              2.981             38.701
 Rotational               0.889              2.981             25.624
 Vibrational             93.097             21.010             15.637
 Vibration     1          0.605              1.944              3.330
 Vibration     2          0.649              1.805              1.930
 Vibration     3          0.675              1.726              1.586
 Vibration     4          0.678              1.717              1.555
 Vibration     5          0.698              1.657              1.368
 Vibration     6          0.713              1.615              1.258
 Vibration     7          0.757              1.492              1.002
 Vibration     8          0.779              1.436              0.907
 Vibration     9          0.780              1.433              0.901
 Vibration    10          0.910              1.129              0.534

 Optimization completed.
    -- Stationary point found.
 Normal termination of Gaussian 16 at Tue Apr 12 16:20:07 2022.
