 Gaussian 16, Revision C.01,
 Gaussian 16:  ES64L-G16RevC.01  3-Jul-2019

 ----------------------------------------------------------------------
 #p B3LYP/cc-PVTZ scf(verytight, maxcycles=1000) opt(calcfc, maxcyc=100
 0) freq(hpmodes) int(grid=ultrafine)
 ----------------------------------------------------------------------

 ------
 Mol_04
 ------
 Symbolic Z-matrix:
 Charge =  0 Multiplicity = 1

 SCF Done:  E(RB3LYP) =  -271.832950717     A.U. after   12 cycles
 SCF Done:  E(RB3LYP) =  -271.840252526     A.U. after   11 cycles
 SCF Done:  E(RB3LYP) =  -271.840384660     A.U. after   10 cycles
 SCF Done:  E(RB3LYP) =  -271.840414156     A.U. after    9 cycles
 SCF Done:  E(RB3LYP) =  -271.840417859     A.U. after    8 cycles
 SCF Done:  E(RB3LYP) =  -271.840418052     A.U. after    7 cycles
 SCF Done:  E(RB3LYP) =  -271.840418930     A.U. after    8 cycles
 SCF Done:  E(RB3LYP) =  -271.840419210     A.U. after    7 cycles
 SCF Done:  E(RB3LYP) =  -271.840419223     A.U. after    8 cycles
 SCF Done:  E(RB3LYP) =  -271.840419344     A.U. after    7 cycles
 Optimization completed.
    -- Stationary point found.

 1\1\GINC-MEDIAWIKI\FOpt\RB3LYP\CC-pVTZ\C5H10O1\SAURABH\12-Apr-2022\0\\
 #p B3LYP/cc-PVTZ scf(verytight, maxcycles=1000) opt(calcfc, maxcyc=100
 0) freq(hpmodes) int(grid=ultrafine)\\Mol_04\\0,1\C,-3.8816541376,2.15
 12649204,0.8012475535\C,-3.6160478268,0.9581114473,-0.1097662599\C,-4.
 8342207561,0.6160093398,-0.9570390069\C,-2.9442240445,-0.2401176195,0.
 6058817241\C,-2.2728953694,1.0413655578,-0.8767488915\H,-4.1404903074,
 3.038037288,0.2182817036\H,-3.0047370972,2.3900446431,1.404696412\H,-4
 .7121321878,1.9468438379,1.4807538494\H,-2.3262753428,0.7703874244,-1.

 Normal termination of Gaussian 16 at Tue Apr 12 17:59:43 2022.

 -------------------------------------------------------------------
 #P Geom=AllCheck Guess=TCheck SCRF=Check GenChk RB3LYP/CC-pVTZ Freq
 -------------------------------------------------------------------

 Structure from the checkpoint file:  "Mol_04.chk"
 ------
 Mol_04
 ------
 Charge =  0 Multiplicity = 1

                         Standard orientation:
 ---------------------------------------------------------------------
 Center     Atomic      Atomic             Coordinates (Angstroms)
 Number     Number       Type             X           Y           Z
 ---------------------------------------------------------------------
      1          6           0        1.256610    1.229964   -0.000000
      2          6           0       -0.022024    0.399781   -0.000000
      3          6           0       -1.263979    1.280916    0.000000
      4          6           0       -0.022024   -0.751949    1.035745
      5          6           0       -0.022024   -0.751949   -1.035745
      6          1           0        1.305245    1.872628   -0.881946
      7          1           0        2.141497    0.591900   -0.000000
      8          1           0        1.305245    1.872628    0.881946
      9          1           0       -0.947951   -0.860014   -1.608560
     10          1           0        0.829678   -0.783053   -1.720164
     11          1           0       -1.285746    1.926232   -0.881157
     12          1           0       -1.285746    1.926232    0.881157
     13          1           0       -2.176172    0.682589    0.000000
     14          8           0        0.084107   -1.753331    0.000000
     15          1           0       -0.947951   -0.860014    1.608560
     16          1           0        0.829678   -0.783053    1.720164
 ---------------------------------------------------------------------

 SCF Done:  E(RB3LYP) =  -271.840419344     A.U. after    1 cycles

 The electronic state is 1-A'.
 Alpha  occ. eigenvalues --  -19.11959 -10.21667 -10.21667 -10.19455 -10.16979
 Alpha  occ. eigenvalues --  -10.16937  -1.03741  -0.80538  -0.69796  -0.69254
 Alpha  occ. eigenvalues --   -0.65760  -0.54049  -0.49051  -0.47261  -0.46926
 Alpha  occ. eigenvalues --   -0.41818  -0.41231  -0.40643  -0.39209  -0.38186
 Alpha  occ. eigenvalues --   -0.34876  -0.31179  -0.29913  -0.25248
 Alpha virt. eigenvalues --    0.02593   0.05338   0.07228   0.07830   0.08396
 Alpha virt. eigenvalues --    0.09393   0.09583   0.10494   0.11192   0.14039
 Alpha virt. eigenvalues --    0.14420   0.14515   0.14724   0.18537   0.21846

 Mulliken charges:
               1
     1  C   -0.313182
     2  C    0.061591
     3  C   -0.309075
     4  C    0.038453
     5  C    0.038453
     6  H    0.091687
     7  H    0.098932
     8  H    0.091687
     9  H    0.059189
    10  H    0.060759
    11  H    0.092618
    12  H    0.092618
    13  H    0.095498
    14  O   -0.319174
    15  H    0.059189
    16  H    0.060759
 Sum of Mulliken charges =  -0.00000

 Dipole moment (field-independent basis, Debye):
    X=             -0.1603    Y=              1.9621    Z=              0.0000  Tot=              1.9687
 Quadrupole moment (field-independent basis, Debye-Ang):
   XX=            -38.2500   YY=            -43.9602   ZZ=            -36.5559
   XY=              0.3694   XZ=             -0.0000   YZ=             -0.0000

  Exact polarizability:      60.836       0.040      61.919       0.000      -0.000      62.586
 Approx polarizability:      81.705      -0.203      84.259      -0.000      -0.000      88.990

                      1                      2                      3
                     A'                     A"                     A"
 Frequencies --     34.6704               223.8302               259.8063
 Red. masses --      3.2091                 1.0870                 1.0615
 Frc consts  --      0.0023                 0.0321                 0.0422
 IR Inten    --      5.2765                 0.0078                 0.0770

                      4                      5                      6
                     A"                     A'                     A"
 Frequencies --    312.7795               343.2038               391.5052
 Red. masses --      1.8139                 2.3113                 2.1184
 Frc consts  --      0.1046                 0.1604                 0.1913
 IR Inten    --      0.0473                 0.0908                 0.9154

                      7                      8                      9
                     A'                     A'                     A'
 Frequencies --    409.3193               637.9879               847.4178
 Red. masses --      1.9427                 3.9119                 3.8266
 Frc consts  --      0.1918                 0.9381                 1.6190
 IR Inten    --      0.0105                 0.5570                13.4373

                     10                     11                     12
                     A"                     A'                     A"
 Frequencies --    881.6497               925.2201               940.6626
 Red. masses --      2.0932                 1.9062                 1.2374
 Frc consts  --      0.9586                 0.9614                 0.6451
 IR Inten    --      2.9702                 2.2888                 0.0095

                     13                     14                     15
                     A'                     A'                     A'
 Frequencies --    961.3668               972.6534              1019.3739
 Red. masses --      2.1280                 1.4313                 2.3815
 Frc consts  --      1.1588                 0.7978                 1.4580
 IR Inten    --     11.9763                 4.0283                 4.8374

                     16                     17                     18
                     A"                     A"                     A'
 Frequencies --   1024.1427              1062.2610              1158.5618
 Red. masses --     11.4462                 1.3852                 1.2532
 Frc consts  --      7.0734                 0.9209                 0.9911
 IR Inten    --     84.2293                 0.0021                 0.6446

                     19                     20                     21
                     A"                     A"                     A'
 Frequencies --   1159.8996              1220.3854              1263.4308
 Red. masses --      1.0590                 2.5552                 2.4787
 Frc consts  --      0.8395                 2.2422                 2.3312
 IR Inten    --      0.0216                 0.1400                 7.6724

                     22                     23                     24
                     A'                     A"                     A'
 Frequencies --   1293.0637              1310.6244              1375.9176
 Red. masses --      2.6264                 1.2702                 1.5556
 Frc consts  --      2.5874                 1.2855                 1.7351
 IR Inten    --      1.3982                 1.0092                 0.0548

                     25                     26                     27
                     A'                     A'                     A"
 Frequencies --   1407.4388              1427.1057              1488.2422
 Red. masses --      1.2656                 1.2271                 1.0453
 Frc consts  --      1.4771                 1.4725                 1.3640
 IR Inten    --      7.8195                 2.8110                 0.0098

                     28                     29                     30
                     A'                     A"                     A'
 Frequencies --   1491.5137              1503.9612              1505.9809
 Red. masses --      1.0510                 1.0553                 1.0632
 Frc consts  --      1.3776                 1.4063                 1.4207
 IR Inten    --      3.2871                 5.5403                 3.9870

                     31                     32                     33
                     A"                     A'                     A"
 Frequencies --   1518.7575              1537.3345              2997.5010
 Red. masses --      1.0751                 1.1079                 1.0529
 Frc consts  --      1.4611                 1.5428                 5.5741
 IR Inten    --      5.1013                 1.9766               139.0912

                     34                     35                     36
                     A'                     A'                     A'
 Frequencies --   3005.9835              3014.7488              3021.8248
 Red. masses --      1.0551                 1.0348                 1.0387
 Frc consts  --      5.6171                 5.5415                 5.5883
 IR Inten    --     10.9987                21.3130                22.8711

                     37                     38                     39
                     A"                     A'                     A"
 Frequencies --   3043.5209              3044.2681              3071.5826
 Red. masses --      1.1091                 1.1116                 1.1017
 Frc consts  --      6.0528                 6.0699                 6.1239
 IR Inten    --      4.5675                85.2406                 0.2058

                     40                     41                     42
                     A"                     A'                     A'
 Frequencies --   3076.7520              3085.2035              3087.0035
 Red. masses --      1.1008                 1.1017                 1.1013
 Frc consts  --      6.1396                 6.1787                 6.1835
 IR Inten    --     58.4995                30.8733                36.5792

 - Thermochemistry -
 -------------------
 Temperature   298.150 Kelvin.  Pressure   1.00000 Atm.
 Atom     1 has atomic number  6 and mass  12.00000

 Molecular mass:    86.07317 amu.
 Principal axes and moments of inertia in atomic units:
                           1         2         3
     Eigenvalues --   348.30920 572.92141 635.12429
           X           -0.04591   0.99895   0.00000
           Y            0.99895   0.04591   0.00000
           Z           -0.00000   0.00000   1.00000
 This molecule is an asymmetric top.
 Rotational symmetry number  1.
 Rotational temperatures (Kelvin)      0.24867     0.15118     0.13637
 Rotational constants (GHZ):           5.18143     3.15007     2.84156
 Zero-point vibrational energy     372986.4 (Joules/Mol)
                                   89.14589 (Kcal/Mol)
 Warning -- explicit consideration of   7 degrees of freedom as
           vibrations may cause significant error
 Vibrational temperatures:     49.88   322.04   373.80   450.02   493.79
          (Kelvin)            563.29   588.92   917.92  1219.25  1268.50
                             1331.19  1353.40  1383.19  1399.43  1466.65
                             1473.51  1528.36  1666.91  1668.84  1755.86
                             1817.80  1860.43  1885.70  1979.64  2024.99
                             2053.29  2141.25  2145.96  2163.86  2166.77
                             2185.15  2211.88  4312.74  4324.94  4337.55
                             4347.73  4378.95  4380.02  4419.32  4426.76
                             4438.92  4441.51

 Zero-point correction=                           0.142063 (Hartree/Particle)
 Thermal correction to Energy=                    0.148832
 Thermal correction to Enthalpy=                  0.149776
 Thermal correction to Gibbs Free Energy=         0.111304
 Sum of electronic and zero-point Energies=           -271.698356
 Sum of electronic and thermal Energies=              -271.691587
 Sum of electronic and thermal Enthalpies=            -271.690643
 Sum of electronic and thermal Free Energies=         -271.729115

                     E (Thermal)             CV                S
                      KCal/Mol        Cal/Mol-Kelvin    Cal/Mol-Kelvin
 Total                   93.393             24.364             80.971
 Electronic               0.000              0.000              0.000
 Translational            0.889              2.981             39.271
 Rotational               0.889              2.981             26.341
 Vibrational             91.616             18.403             15.359
 Vibration     1          0.594              1.983              5.542
 Vibration     2          0.649              1.805              1.928
 Vibration     3          0.668              1.746              1.663
 Vibration     4          0.701              1.649              1.348
 Vibration     5          0.722              1.589              1.197
 Vibration     6          0.759              1.488              0.994
 Vibration     7          0.774              1.450              0.929

 Optimization completed.
    -- Stationary point found.

 1\1\GINC-MEDIAWIKI\Freq\RB3LYP\CC-pVTZ\C5H10O1\SAURABH\12-Apr-2022\0\\
 #P Geom=AllCheck Guess=TCheck SCRF=Check GenChk RB3LYP/CC-pVTZ Freq\\M
 ol_04\\0,1\C,-3.8816541376,2.1512649204,0.8012475535\C,-3.6160478268,0
 .9581114473,-0.1097662599\C,-4.8342207561,0.6160093398,-0.9570390069\C
 ,-2.9442240445,-0.2401176195,0.6058817241\C,-2.2728953694,1.0413655578
 ,-0.8767488915\H,-4.1404903074,3.038037288,0.2182817036\H,-3.004737097
 2,2.3900446431,1.404696412\H,-4.7121321878,1.9468438379,1.4807538494\H
 ,-2.3262753428,0.7703874244,-1.935454856\H,-1.7170706012,1.9768038399,

 Normal termination of Gaussian 16 at Tue Apr 12 18:04:03 2022.
