 Gaussian 16, Revision C.01,
 Gaussian 16:  ES64L-G16RevC.01  3-Jul-2019

 ----------------------------------------------------------------------
 #p B3LYP/cc-PVTZ scf(verytight, maxcycles=1000) opt(calcfc, maxcyc=100
 0) freq(hpmodes) int(grid=ultrafine)
 ----------------------------------------------------------------------

 ------
 Mol_03
 ------
 Symbolic Z-matrix:
 Charge =  0 Multiplicity = 2

 SCF Done:  E(UB3LYP) =  -347.550794370     A.U. after   14 cycles
 SCF Done:  E(UB3LYP) =  -347.571182098     A.U. after   13 cycles
 SCF Done:  E(UB3LYP) =  -347.576126208     A.U. after   14 cycles
 SCF Done:  E(UB3LYP) =  -347.575760902     A.U. after   14 cycles
 SCF Done:  E(UB3LYP) =  -347.577006282     A.U. after   13 cycles
 SCF Done:  E(UB3LYP) =  -347.577124808     A.U. after   12 cycles
 SCF Done:  E(UB3LYP) =  -347.577171279     A.U. after   11 cycles
 SCF Done:  E(UB3LYP) =  -347.577182782     A.U. after   10 cycles
 SCF Done:  E(UB3LYP) =  -347.577186417     A.U. after    9 cycles
 SCF Done:  E(UB3LYP) =  -347.577186588     A.U. after    7 cycles
 Optimization completed.
    -- Stationary point found.
 Normal termination of Gaussian 16 at Tue Apr 12 17:32:05 2022.

 -------------------------------------------------------------------
 #P Geom=AllCheck Guess=TCheck SCRF=Check GenChk UB3LYP/CC-pVTZ Freq
 -------------------------------------------------------------------

 Structure from the checkpoint file:  "Mol_03.chk"
 ------
 Mol_03
 ------
 Charge =  0 Multiplicity = 2

                         Standard orientation:
 ---------------------------------------------------------------------
 Center     Atomic      Atomic             Coordinates (Angstroms)
 Number     Number       Type             X           Y           Z
 ---------------------------------------------------------------------
      1          6           0       -1.090901    0.819175    1.235392
      2          6           0       -0.757997   -0.072705    0.030108
      3          6           0       -1.979130   -0.139922   -0.922839
      4          6           0       -0.409571   -1.456614    0.477090
      5          6           0        0.398603    0.558631   -0.783508
      6          1           0       -1.402166    1.813394    0.910178
      7          1           0       -0.224900    0.936204    1.886051
      8          1           0       -1.904533    0.387887    1.820486
      9          1           0        0.624035   -0.036070   -1.671569
     10          1           0        0.107767    1.564181   -1.099818
     11          1           0        1.928120   -0.930355    0.721946
     12          1           0       -0.066123   -2.188790   -0.242015
     13          1           0       -0.701939   -1.812020    1.455955
     14          1           0       -2.242816    0.858228   -1.280755
     15          1           0       -2.845019   -0.553635   -0.406297
     16          1           0       -1.771207   -0.769336   -1.789165
     17          8           0        1.593985    0.772145   -0.046966
     18          8           0        2.347610   -0.462281   -0.018341
 ---------------------------------------------------------------------

 SCF Done:  E(UB3LYP) =  -347.577186588     A.U. after    1 cycles

 The electronic state is 2-A.
 Alpha  occ. eigenvalues --  -19.18552 -19.17809 -10.22663 -10.20350 -10.19128
 Alpha  occ. eigenvalues --  -10.17721 -10.16806  -1.11948  -0.91594  -0.83105
 Alpha  occ. eigenvalues --   -0.70026  -0.69224  -0.67577  -0.55898  -0.53328
 Alpha  occ. eigenvalues --   -0.48627  -0.48048  -0.44869  -0.44116  -0.43602
 Alpha  occ. eigenvalues --   -0.40224  -0.39339  -0.37593  -0.36294  -0.35800
 Alpha  occ. eigenvalues --   -0.34626  -0.29991  -0.27954  -0.21988
 Alpha virt. eigenvalues --    0.01485   0.02720   0.06251   0.06846   0.07298
 Alpha virt. eigenvalues --    0.08504   0.09290   0.09798   0.11339   0.13088
 Alpha virt. eigenvalues --    0.13796   0.14278   0.15323   0.16782   0.17021

  Beta  occ. eigenvalues --  -19.18545 -19.17717 -10.22599 -10.20418 -10.17783
  Beta  occ. eigenvalues --  -10.17585 -10.16795  -1.11848  -0.91450  -0.82441
  Beta  occ. eigenvalues --   -0.69860  -0.67784  -0.66290  -0.55328  -0.53168
  Beta  occ. eigenvalues --   -0.48385  -0.47682  -0.44297  -0.43857  -0.43411
  Beta  occ. eigenvalues --   -0.40095  -0.38931  -0.37484  -0.35981  -0.35198
  Beta  occ. eigenvalues --   -0.34358  -0.29544  -0.27604
  Beta virt. eigenvalues --   -0.08045   0.01636   0.02853   0.06693   0.06945
  Beta virt. eigenvalues --    0.07592   0.08971   0.09413   0.10154   0.11457
  Beta virt. eigenvalues --    0.13186   0.13934   0.14376   0.15454   0.17000

 Mulliken charges and spin densities:
               1          2
     1  C   -0.294493   0.002419
     2  C    0.106272  -0.046766
     3  C   -0.293778   0.038373
     4  C   -0.351520   0.994848
     5  C    0.021923   0.018541
     6  H    0.088656  -0.001044
     7  H    0.103547   0.002156
     8  H    0.092086   0.000369
     9  H    0.084851  -0.000082
    10  H    0.089581   0.001757
    11  H    0.221437   0.008104
    12  H    0.125641  -0.027421
    13  H    0.130243  -0.030812
    14  H    0.092366   0.013921
    15  H    0.098786   0.001921
    16  H    0.097519  -0.000746
    17  O   -0.186686   0.003024
    18  O   -0.226430   0.021438
 Sum of Mulliken charges =   0.00000   1.00000

 Dipole moment (field-independent basis, Debye):
    X=             -2.4809    Y=             -0.7760    Z=              0.1810  Tot=              2.6057
 Quadrupole moment (field-independent basis, Debye-Ang):
   XX=            -51.3069   YY=            -43.8352   ZZ=            -43.0220
   XY=             -2.2539   XZ=              1.2812   YZ=             -1.7431

  Exact polarizability:      75.421      -3.482      69.849       1.784      -2.304      67.407
 Approx polarizability:     100.857      -5.813     102.697       2.195      -4.413      94.074

                      1                      2                      3
                      A                      A                      A
 Frequencies --     82.2195               145.9221               168.2912
 Red. masses --      3.2594                 2.5589                 1.2472
 Frc consts  --      0.0130                 0.0321                 0.0208
 IR Inten    --      0.2909                13.8936                 2.3669

                      4                      5                      6
                      A                      A                      A
 Frequencies --    223.1865               238.9078               258.9470
 Red. masses --      1.1588                 1.9521                 1.0958
 Frc consts  --      0.0340                 0.0656                 0.0433
 IR Inten    --      1.4112                16.4895                 8.0313

                      7                      8                      9
                      A                      A                      A
 Frequencies --    282.1709               306.1951               341.5138
 Red. masses --      1.6043                 1.8945                 2.2905
 Frc consts  --      0.0753                 0.1047                 0.1574
 IR Inten    --     53.3908                85.1120                 2.6704

                     10                     11                     12
                      A                      A                      A
 Frequencies --    396.1744               401.9358               453.8458
 Red. masses --      2.5154                 2.1759                 1.9967
 Frc consts  --      0.2326                 0.2071                 0.2423
 IR Inten    --      0.6029                 0.2278                 5.1783

                     13                     14                     15
                      A                      A                      A
 Frequencies --    553.4559               621.5174               757.7773
 Red. masses --      2.2316                 1.9714                 3.6486
 Frc consts  --      0.4028                 0.4487                 1.2344
 IR Inten    --      3.2871                24.6838                 4.1197

                     16                     17                     18
                      A                      A                      A
 Frequencies --    867.5341               893.2415               930.4618
 Red. masses --      3.4207                 2.5014                 1.7414
 Frc consts  --      1.5168                 1.1759                 0.8883
 IR Inten    --      5.5916                15.9190                 1.0829

                     19                     20                     21
                      A                      A                      A
 Frequencies --    947.8231               956.2221              1010.9234
 Red. masses --      2.1610                 1.3941                 1.7226
 Frc consts  --      1.1438                 0.7510                 1.0372
 IR Inten    --      2.1548                 1.3971                 0.4797

                     22                     23                     24
                      A                      A                      A
 Frequencies --   1024.9251              1056.1846              1164.6371
 Red. masses --      1.9458                 2.5401                 2.2119
 Frc consts  --      1.2043                 1.6695                 1.7676
 IR Inten    --     15.1681                18.0896                 1.9919

                     25                     26                     27
                      A                      A                      A
 Frequencies --   1242.9597              1253.6327              1328.9846
 Red. masses --      1.9745                 2.8289                 1.4137
 Frc consts  --      1.7973                 2.6194                 1.4712
 IR Inten    --      4.2138                 1.2821                 1.3597

                     28                     29                     30
                      A                      A                      A
 Frequencies --   1371.1282              1389.0006              1397.1891
 Red. masses --      1.2326                 1.1218                 1.1873
 Frc consts  --      1.3653                 1.2752                 1.3656
 IR Inten    --      2.0835                46.5310                16.2580

                     31                     32                     33
                      A                      A                      A
 Frequencies --   1417.2041              1454.5062              1469.8460
 Red. masses --      1.2146                 1.1057                 1.1353
 Frc consts  --      1.4374                 1.3782                 1.4451
 IR Inten    --     10.0503                 3.0988                 1.1759

                     34                     35                     36
                      A                      A                      A
 Frequencies --   1487.3982              1492.2050              1503.8472
 Red. masses --      1.0464                 1.0575                 1.0536
 Frc consts  --      1.3640                 1.3874                 1.4040
 IR Inten    --      0.6765                 4.9394                 7.3779

                     37                     38                     39
                      A                      A                      A
 Frequencies --   1512.0371              3016.6355              3021.3596
 Red. masses --      1.0651                 1.0432                 1.0466
 Frc consts  --      1.4347                 5.5930                 5.6291
 IR Inten    --     10.9899                 5.5054                49.2416

                     40                     41                     42
                      A                      A                      A
 Frequencies --   3029.7800              3068.5296              3081.6000
 Red. masses --      1.0370                 1.1075                 1.1001
 Frc consts  --      5.6087                 6.1440                 6.1550
 IR Inten    --     22.3169                 9.7238                18.4276

                     43                     44                     45
                      A                      A                      A
 Frequencies --   3087.7546              3098.3088              3103.4782
 Red. masses --      1.1016                 1.1020                 1.1010
 Frc consts  --      6.1880                 6.2329                 6.2482
 IR Inten    --     36.2272                25.9778                19.3423

                     46                     47                     48
                      A                      A                      A
 Frequencies --   3126.9234              3227.6601              3662.9664
 Red. masses --      1.0505                 1.1184                 1.0684
 Frc consts  --      6.0515                 6.8645                 8.4462
 IR Inten    --     11.1541                 9.7477                17.2254

 - Thermochemistry -
 -------------------
 Temperature   298.150 Kelvin.  Pressure   1.00000 Atm.
 Atom     1 has atomic number  6 and mass  12.00000

 Molecular mass:   103.07590 amu.
 Principal axes and moments of inertia in atomic units:
                           1         2         3
     Eigenvalues --   450.565801018.530541053.19195
           X            0.99984  -0.01666   0.00697
           Y            0.01654   0.99972   0.01666
           Z           -0.00724  -0.01654   0.99984
 This molecule is an asymmetric top.
 Rotational symmetry number  1.
 Warning -- assumption of classical behavior for rotation
           may cause significant error
 Rotational temperatures (Kelvin)      0.19223     0.08504     0.08224
 Rotational constants (GHZ):           4.00550     1.77191     1.71359
 Zero-point vibrational energy     400324.0 (Joules/Mol)
                                   95.67974 (Kcal/Mol)
 Warning -- explicit consideration of  13 degrees of freedom as
           vibrations may cause significant error
 Vibrational temperatures:    118.30   209.95   242.13   321.12   343.74
          (Kelvin)            372.57   405.98   440.55   491.36   570.01
                              578.30   652.98   796.30   894.22  1090.27
                             1248.19  1285.18  1338.73  1363.71  1375.79
                             1454.49  1474.64  1519.61  1675.65  1788.34
                             1803.70  1912.11  1972.75  1998.46  2010.24
                             2039.04  2092.71  2114.78  2140.03  2146.95
                             2163.70  2175.48  4340.27  4347.06  4359.18
                             4414.93  4433.74  4442.59  4457.78  4465.21
                             4498.95  4643.88  5270.19

 Zero-point correction=                           0.152475 (Hartree/Particle)
 Thermal correction to Energy=                    0.161846
 Thermal correction to Enthalpy=                  0.162790
 Thermal correction to Gibbs Free Energy=         0.118842
 Sum of electronic and zero-point Energies=           -347.424711
 Sum of electronic and thermal Energies=              -347.415340
 Sum of electronic and thermal Enthalpies=            -347.414396
 Sum of electronic and thermal Free Energies=         -347.458345

                     E (Thermal)             CV                S
                      KCal/Mol        Cal/Mol-Kelvin    Cal/Mol-Kelvin
 Total                  101.560             34.182             92.497
 Electronic               0.000              0.000              1.377
 Translational            0.889              2.981             39.808
 Rotational               0.889              2.981             27.671
 Vibrational             99.783             28.221             23.640
 Vibration     1          0.600              1.961              3.837
 Vibration     2          0.617              1.907              2.725
 Vibration     3          0.625              1.881              2.454
 Vibration     4          0.649              1.806              1.933
 Vibration     5          0.657              1.781              1.811
 Vibration     6          0.668              1.748              1.669
 Vibration     7          0.681              1.707              1.520
 Vibration     8          0.697              1.662              1.383
 Vibration     9          0.721              1.593              1.205
 Vibration    10          0.763              1.478              0.977
 Vibration    11          0.768              1.466              0.956
 Vibration    12          0.812              1.352              0.784
 Vibration    13          0.909              1.132              0.537

 Optimization completed.
    -- Stationary point found.
 Normal termination of Gaussian 16 at Tue Apr 12 17:46:57 2022.
