 Gaussian 16, Revision C.01,
 Gaussian 16:  ES64L-G16RevC.01  3-Jul-2019

 ----------------------------------------------------------------------
 #p B3LYP/cc-PVTZ scf(verytight, maxcycles=1000) opt(calcfc, maxcyc=100
 0) freq(hpmodes) int(grid=ultrafine)
 ----------------------------------------------------------------------

 ------
 Mol_05
 ------
 Symbolic Z-matrix:
 Charge =  0 Multiplicity = 1

 SCF Done:  E(RB3LYP) =  -196.580919895     A.U. after   12 cycles
 SCF Done:  E(RB3LYP) =  -196.599044811     A.U. after   10 cycles
 SCF Done:  E(RB3LYP) =  -196.603270000     A.U. after   10 cycles
 SCF Done:  E(RB3LYP) =  -196.603379215     A.U. after    9 cycles
 SCF Done:  E(RB3LYP) =  -196.603407561     A.U. after    7 cycles
 SCF Done:  E(RB3LYP) =  -196.603408390     A.U. after    6 cycles
 Optimization completed.
    -- Stationary point found.
 Normal termination of Gaussian 16 at Tue Apr 12 18:11:34 2022.

 -------------------------------------------------------------------
 #P Geom=AllCheck Guess=TCheck SCRF=Check GenChk RB3LYP/CC-pVTZ Freq
 -------------------------------------------------------------------

 Structure from the checkpoint file:  "Mol_05.chk"
 ------
 Mol_05
 ------
 Charge =  0 Multiplicity = 1

                         Standard orientation:
 ---------------------------------------------------------------------
 Center     Atomic      Atomic             Coordinates (Angstroms)
 Number     Number       Type             X           Y           Z
 ---------------------------------------------------------------------
      1          6           0       -0.969464    1.272901    0.000006
      2          6           0       -0.149643    0.000000    0.000167
      3          6           0       -0.969464   -1.272901    0.000006
      4          6           0        1.153212    0.000000    0.755277
      5          6           0        1.153112    0.000000   -0.755332
      6          1           0       -1.612454    1.325254   -0.882306
      7          1           0       -0.331866    2.157967   -0.000111
      8          1           0       -1.612462    1.325504    0.882303
      9          1           0       -1.612454   -1.325254   -0.882306
     10          1           0       -1.612462   -1.325504    0.882303
     11          1           0       -0.331866   -2.157967   -0.000111
     12          1           0        1.451600    0.908105   -1.261682
     13          1           0        1.451600   -0.908105   -1.261682
     14          1           0        1.451924   -0.908136    1.261424
     15          1           0        1.451924    0.908136    1.261424
 ---------------------------------------------------------------------

 SCF Done:  E(RB3LYP) =  -196.603408390     A.U. after    1 cycles

 The electronic state is 1-A.
 Alpha  occ. eigenvalues --  -10.18633 -10.16748 -10.16722 -10.16211 -10.16210
 Alpha  occ. eigenvalues --   -0.86555  -0.72407  -0.69095  -0.60013  -0.54028
 Alpha  occ. eigenvalues --   -0.48205  -0.45814  -0.42848  -0.40157  -0.39044
 Alpha  occ. eigenvalues --   -0.37814  -0.35869  -0.34211  -0.28747  -0.27175
 Alpha virt. eigenvalues --    0.03570   0.06717   0.07484   0.08044   0.09125
 Alpha virt. eigenvalues --    0.09279   0.10926   0.13681   0.13757   0.14801
 Alpha virt. eigenvalues --    0.14891   0.15158   0.19438   0.20451   0.23260

 Mulliken charges:
               1
     1  C   -0.302548
     2  C    0.189007
     3  C   -0.302548
     4  C   -0.243807
     5  C   -0.243782
     6  H    0.090539
     7  H    0.084601
     8  H    0.090530
     9  H    0.090539
    10  H    0.090530
    11  H    0.084601
    12  H    0.093076
    13  H    0.093076
    14  H    0.093093
    15  H    0.093093
 Sum of Mulliken charges =  -0.00000

 Dipole moment (field-independent basis, Debye):
    X=             -0.1123    Y=             -0.0000    Z=             -0.0000  Tot=              0.1123
 Quadrupole moment (field-independent basis, Debye-Ang):
   XX=            -34.5841   YY=            -32.8192   ZZ=            -33.9375
   XY=              0.0000   XZ=              0.0006   YZ=             -0.0000

  Exact polarizability:      62.438      -0.000      58.716      -0.002       0.000      55.718
 Approx polarizability:      83.873      -0.000      77.892      -0.004       0.000      81.764

                      1                      2                      3
                      A                      A                      A
 Frequencies --    218.1382               242.1242               328.7420
 Red. masses --      1.0499                 1.0500                 1.7813
 Frc consts  --      0.0294                 0.0363                 0.1134
 IR Inten    --      0.0000                 0.0015                 0.0000

                      4                      5                      6
                      A                      A                      A
 Frequencies --    352.8845               362.1249               396.1359
 Red. masses --      2.2037                 2.2566                 2.1476
 Frc consts  --      0.1617                 0.1744                 0.1986
 IR Inten    --      0.0403                 0.8357                 0.9756

                      7                      8                      9
                      A                      A                      A
 Frequencies --    685.2570               791.7205               847.8843
 Red. masses --      3.5413                 1.0225                 3.1026
 Frc consts  --      0.9798                 0.3776                 1.3142
 IR Inten    --      1.5107                 0.0001                 6.4741

                     10                     11                     12
                      A                      A                      A
 Frequencies --    902.0329               943.3228               946.5531
 Red. masses --      1.1360                 2.6119                 1.6524
 Frc consts  --      0.5446                 1.3694                 0.8723
 IR Inten    --      0.0000                10.7258                 0.2147

                     13                     14                     15
                      A                      A                      A
 Frequencies --    976.2402              1042.3030              1066.9208
 Red. masses --      1.2340                 1.2176                 1.2633
 Frc consts  --      0.6929                 0.7794                 0.8473
 IR Inten    --      0.3536                 9.9568                 0.0000

                     16                     17                     18
                      A                      A                      A
 Frequencies --   1077.7220              1086.0058              1159.4654
 Red. masses --      1.4074                 1.9572                 1.9072
 Frc consts  --      0.9631                 1.3601                 1.5107
 IR Inten    --      0.5503                 0.2491                 4.3107

                     19                     20                     21
                      A                      A                      A
 Frequencies --   1188.8213              1317.6411              1350.8070
 Red. masses --      1.3196                 2.5412                 2.4557
 Frc consts  --      1.0988                 2.5995                 2.6401
 IR Inten    --      0.0000                 1.3736                 1.8870

                     22                     23                     24
                      A                      A                      A
 Frequencies --   1413.6465              1426.2415              1472.6796
 Red. masses --      1.3221                 1.2691                 1.0855
 Frc consts  --      1.5566                 1.5210                 1.3871
 IR Inten    --      7.1396                 0.0610                 4.4564

                     25                     26                     27
                      A                      A                      A
 Frequencies --   1483.9442              1495.7395              1502.0405
 Red. masses --      1.0435                 1.0534                 1.0473
 Frc consts  --      1.3539                 1.3886                 1.3922
 IR Inten    --      0.0000                 4.5161                 6.3986

                     28                     29                     30
                      A                      A                      A
 Frequencies --   1504.9862              1518.9348              3009.5786
 Red. masses --      1.1022                 1.3040                 1.0354
 Frc consts  --      1.4709                 1.7726                 5.5256
 IR Inten    --      6.3555                 0.0062                33.5379

                     31                     32                     33
                      A                      A                      A
 Frequencies --   3014.4939              3060.7114              3063.6203
 Red. masses --      1.0359                 1.1014                 1.1007
 Frc consts  --      5.5463                 6.0793                 6.0867
 IR Inten    --     46.5775                 0.0000                65.5679

                     34                     35                     36
                      A                      A                      A
 Frequencies --   3082.4996              3084.6356              3116.4707
 Red. masses --      1.1005                 1.0998                 1.0500
 Frc consts  --      6.1610                 6.1656                 6.0086
 IR Inten    --     20.1158                38.8135                27.6206

                     37                     38                     39
                      A                      A                      A
 Frequencies --   3120.9059              3189.3727              3203.5157
 Red. masses --      1.0578                 1.1191                 1.1162
 Frc consts  --      6.0702                 6.7068                 6.7490
 IR Inten    --     12.5399                 0.0003                26.9271

 - Thermochemistry -
 -------------------
 Temperature   298.150 Kelvin.  Pressure   1.00000 Atm.
 Atom     1 has atomic number  6 and mass  12.00000

 Molecular mass:    70.07825 amu.
 Principal axes and moments of inertia in atomic units:
                           1         2         3
     Eigenvalues --   292.55927 346.97093 473.50621
           X            1.00000  -0.00000   0.00000
           Y            0.00000   1.00000   0.00000
           Z           -0.00000  -0.00000   1.00000
 This molecule is an asymmetric top.
 Rotational symmetry number  1.
 Rotational temperatures (Kelvin)      0.29606     0.24963     0.18292
 Rotational constants (GHZ):           6.16881     5.20142     3.81144
 Zero-point vibrational energy     359160.0 (Joules/Mol)
                                   85.84130 (Kcal/Mol)
 Warning -- explicit consideration of   6 degrees of freedom as
           vibrations may cause significant error
 Vibrational temperatures:    313.85   348.36   472.99   507.72   521.02
          (Kelvin)            569.95   985.93  1139.11  1219.92  1297.82
                             1357.23  1361.88  1404.59  1499.64  1535.06
                             1550.60  1562.52  1668.21  1710.45  1895.79
                             1943.51  2033.92  2052.04  2118.86  2135.06
                             2152.04  2161.10  2165.34  2185.41  4330.11
                             4337.18  4403.68  4407.87  4435.03  4438.10
                             4483.91  4490.29  4588.80  4609.14

 Zero-point correction=                           0.136797 (Hartree/Particle)
 Thermal correction to Energy=                    0.142729
 Thermal correction to Enthalpy=                  0.143673
 Thermal correction to Gibbs Free Energy=         0.108503
 Sum of electronic and zero-point Energies=           -196.466612
 Sum of electronic and thermal Energies=              -196.460680
 Sum of electronic and thermal Enthalpies=            -196.459736
 Sum of electronic and thermal Free Energies=         -196.494905

                     E (Thermal)             CV                S
                      KCal/Mol        Cal/Mol-Kelvin    Cal/Mol-Kelvin
 Total                   89.563             22.248             74.021
 Electronic               0.000              0.000              0.000
 Translational            0.889              2.981             38.658
 Rotational               0.889              2.981             25.378
 Vibrational             87.786             16.286              9.985
 Vibration     1          0.646              1.813              1.974
 Vibration     2          0.658              1.776              1.787
 Vibration     3          0.712              1.618              1.266
 Vibration     4          0.729              1.569              1.153
 Vibration     5          0.736              1.550              1.113
 Vibration     6          0.763              1.478              0.977

 Optimization completed.
    -- Stationary point found.
 Normal termination of Gaussian 16 at Tue Apr 12 18:15:37 2022.
