 Gaussian 16, Revision C.01,
 Gaussian 16:  ES64L-G16RevC.01  3-Jul-2019

 ----------------------------------------------------------------------
 #p B3LYP/cc-PVTZ scf(verytight, maxcycles=1000) opt(calcfc, maxcyc=100
 0) freq(hpmodes) int(grid=ultrafine)
 ----------------------------------------------------------------------

 ------
 Mol_02
 ------
 Symbolic Z-matrix:
 Charge =  0 Multiplicity = 2

 SCF Done:  E(UB3LYP) =  -347.603160970     A.U. after   18 cycles
 SCF Done:  E(UB3LYP) =  -347.610394388     A.U. after   15 cycles
 SCF Done:  E(UB3LYP) =  -347.610554987     A.U. after   15 cycles
 SCF Done:  E(UB3LYP) =  -347.610560277     A.U. after   12 cycles
 SCF Done:  E(UB3LYP) =  -347.610560363     A.U. after   11 cycles
 SCF Done:  E(UB3LYP) =  -347.610560394     A.U. after   10 cycles
 Optimization completed.
    -- Stationary point found.
 Normal termination of Gaussian 16 at Tue Apr 12 16:46:04 2022.

 -------------------------------------------------------------------
 #P Geom=AllCheck Guess=TCheck SCRF=Check GenChk UB3LYP/CC-pVTZ Freq
 -------------------------------------------------------------------

 Structure from the checkpoint file:  "Mol_02.chk"
 ------
 Mol_02
 ------
 Charge =  0 Multiplicity = 2

                         Standard orientation:
 ---------------------------------------------------------------------
 Center     Atomic      Atomic             Coordinates (Angstroms)
 Number     Number       Type             X           Y           Z
 ---------------------------------------------------------------------
      1          6           0       -1.063554   -1.018643   -1.089256
      2          6           0       -0.747680    0.031173   -0.013335
      3          6           0       -1.927658    0.145185    0.965624
      4          6           0       -0.481716    1.394391   -0.666931
      5          6           0        0.465868   -0.414646    0.814125
      6          1           0       -1.274865   -1.992396   -0.642476
      7          1           0       -0.230913   -1.139395   -1.781870
      8          1           0       -1.940053   -0.718943   -1.665593
      9          1           0        0.732530    0.316984    1.574524
     10          1           0        0.282019   -1.386665    1.274502
     11          1           0        0.361704    1.351582   -1.355179
     12          1           0       -0.262106    2.157344    0.081515
     13          1           0       -1.359093    1.716973   -1.229980
     14          1           0       -2.140251   -0.810148    1.449619
     15          1           0       -2.828532    0.455943    0.434842
     16          1           0       -1.729905    0.883449    1.745090
     17          8           0        1.650641   -0.622680   -0.005948
     18          8           0        2.464097    0.415244    0.012654
 ---------------------------------------------------------------------

 SCF Done:  E(UB3LYP) =  -347.610560394     A.U. after    1 cycles

 The electronic state is 2-A.
 Alpha  occ. eigenvalues --  -19.24549 -19.19358 -10.23705 -10.20589 -10.17622
 Alpha  occ. eigenvalues --  -10.16979 -10.16701  -1.18913  -0.88929  -0.82452
 Alpha  occ. eigenvalues --   -0.70260  -0.69748  -0.68179  -0.56433  -0.52136
 Alpha  occ. eigenvalues --   -0.51113  -0.49933  -0.45606  -0.44470  -0.43988
 Alpha  occ. eigenvalues --   -0.40757  -0.39931  -0.38280  -0.37718  -0.35604
 Alpha  occ. eigenvalues --   -0.34502  -0.34077  -0.28027  -0.27657
 Alpha virt. eigenvalues --    0.02396   0.05936   0.06400   0.06875   0.08253
 Alpha virt. eigenvalues --    0.08430   0.09859   0.10813   0.12495   0.13073
 Alpha virt. eigenvalues --    0.13884   0.14898   0.15471   0.15770   0.16921

  Beta  occ. eigenvalues --  -19.23542 -19.17436 -10.23737 -10.20553 -10.17618
  Beta  occ. eigenvalues --  -10.16979 -10.16701  -1.16248  -0.86711  -0.81202
  Beta  occ. eigenvalues --   -0.70226  -0.69737  -0.67213  -0.55942  -0.50477
  Beta  occ. eigenvalues --   -0.50189  -0.48350  -0.45114  -0.43906  -0.40594
  Beta  occ. eigenvalues --   -0.40363  -0.39572  -0.38119  -0.37678  -0.34642
  Beta  occ. eigenvalues --   -0.34049  -0.33549  -0.26321
  Beta virt. eigenvalues --   -0.10917   0.02428   0.06296   0.06458   0.06923
  Beta virt. eigenvalues --    0.08286   0.08619   0.10209   0.11206   0.12527
  Beta virt. eigenvalues --    0.13298   0.13977   0.14994   0.15812   0.15843

 Mulliken charges and spin densities:
               1          2
     1  C   -0.299132   0.001149
     2  C    0.088804   0.017562
     3  C   -0.307062   0.002548
     4  C   -0.297865  -0.002148
     5  C   -0.006034  -0.021067
     6  H    0.088467   0.000173
     7  H    0.107787  -0.000056
     8  H    0.093164  -0.000223
     9  H    0.098019   0.002206
    10  H    0.098803   0.005907
    11  H    0.106656  -0.000995
    12  H    0.093070   0.000225
    13  H    0.091353   0.002791
    14  H    0.092569   0.000087
    15  H    0.098501   0.000561
    16  H    0.095574  -0.000099
    17  O   -0.061374   0.301622
    18  O   -0.181301   0.689756
 Sum of Mulliken charges =  -0.00000   1.00000

 Dipole moment (field-independent basis, Debye):
    X=             -2.6640    Y=             -0.3820    Z=              0.8718  Tot=              2.8289
 Quadrupole moment (field-independent basis, Debye-Ang):
   XX=            -50.9463   YY=            -44.5653   ZZ=            -43.3121
   XY=             -0.6077   XZ=              1.0635   YZ=             -0.7560

  Exact polarizability:      77.175       4.827      67.903      -1.807      -0.508      65.023
 Approx polarizability:     104.093       9.200      99.056      -2.658      -0.838      90.533

                      1                      2                      3
                      A                      A                      A
 Frequencies --     67.2322                96.3604               214.3459
 Red. masses --      6.9775                 3.4131                 1.0745
 Frc consts  --      0.0186                 0.0187                 0.0291
 IR Inten    --      1.1926                 2.0003                 0.1010

                      4                      5                      6
                      A                      A                      A
 Frequencies --    229.7828               260.9030               265.8219
 Red. masses --      2.8106                 1.0433                 1.1074
 Frc consts  --      0.0874                 0.0418                 0.0461
 IR Inten    --      1.7158                 0.0919                 0.0394

                      7                      8                      9
                      A                      A                      A
 Frequencies --    307.0666               335.9743               389.6075
 Red. masses --      2.7546                 2.4927                 2.3651
 Frc consts  --      0.1530                 0.1658                 0.2115
 IR Inten    --      0.8449                 0.4640                 0.6034

                     10                     11                     12
                      A                      A                      A
 Frequencies --    406.1536               480.1114               553.0345
 Red. masses --      2.1515                 2.4752                 3.1355
 Frc consts  --      0.2091                 0.3362                 0.5650
 IR Inten    --      0.1915                 3.4694                 2.1043

                     13                     14                     15
                      A                      A                      A
 Frequencies --    739.8855               883.4435               912.3390
 Red. masses --      3.5598                 2.9442                 2.3503
 Frc consts  --      1.1482                 1.3539                 1.1526
 IR Inten    --      1.5468                 5.1864                11.0770

                     16                     17                     18
                      A                      A                      A
 Frequencies --    932.5342               944.4727               963.9107
 Red. masses --      2.3706                 1.7130                 1.4236
 Frc consts  --      1.2146                 0.9003                 0.7793
 IR Inten    --      5.6780                 0.8911                 1.7589

                     19                     20                     21
                      A                      A                      A
 Frequencies --    968.8674              1048.3496              1085.0899
 Red. masses --      1.2183                 1.4387                 1.5262
 Frc consts  --      0.6738                 0.9316                 1.0588
 IR Inten    --      0.1540                 0.6124                 0.5091

                     22                     23                     24
                      A                      A                      A
 Frequencies --   1159.5049              1232.5810              1248.1471
 Red. masses --      3.6908                 2.4525                 2.4487
 Frc consts  --      2.9236                 2.1953                 2.2476
 IR Inten    --      7.0787                 3.7045                 1.5388

                     25                     26                     27
                      A                      A                      A
 Frequencies --   1275.8564              1320.9303              1368.2178
 Red. masses --      2.7551                 1.4745                 1.3004
 Frc consts  --      2.6424                 1.5158                 1.4343
 IR Inten    --      6.2792                 7.3445                 0.6600

                     28                     29                     30
                      A                      A                      A
 Frequencies --   1404.2359              1408.3626              1437.2366
 Red. masses --      1.2158                 1.2254                 1.2147
 Frc consts  --      1.4125                 1.4321                 1.4783
 IR Inten    --      7.5111                 9.8636                 6.5218

                     31                     32                     33
                      A                      A                      A
 Frequencies --   1470.6616              1483.4225              1489.3524
 Red. masses --      1.0922                 1.0459                 1.0452
 Frc consts  --      1.3918                 1.3560                 1.3660
 IR Inten    --      3.4668                 0.0641                 0.2644

                     34                     35                     36
                      A                      A                      A
 Frequencies --   1491.5669              1508.8469              1509.1239
 Red. masses --      1.0447                 1.0562                 1.0563
 Frc consts  --      1.3694                 1.4167                 1.4174
 IR Inten    --      0.2440                 8.1825                 5.2042

                     37                     38                     39
                      A                      A                      A
 Frequencies --   1521.1851              3020.5321              3024.9991
 Red. masses --      1.0633                 1.0346                 1.0356
 Frc consts  --      1.4497                 5.5615                 5.5833
 IR Inten    --     15.7633                22.3567                30.2079

                     40                     41                     42
                      A                      A                      A
 Frequencies --   3031.3061              3048.8968              3080.5358
 Red. masses --      1.0370                 1.0573                 1.1019
 Frc consts  --      5.6143                 5.7910                 6.1610
 IR Inten    --     13.2552                20.6429                 8.9355

                     43                     44                     45
                      A                      A                      A
 Frequencies --   3084.0447              3086.2493              3091.1858
 Red. masses --      1.1012                 1.1020                 1.1008
 Frc consts  --      6.1708                 6.1841                 6.1971
 IR Inten    --     29.7592                 6.2179                59.2043

                     46                     47                     48
                      A                      A                      A
 Frequencies --   3100.3205              3104.8386              3114.9399
 Red. masses --      1.1014                 1.1004                 1.1075
 Frc consts  --      6.2373                 6.2502                 6.3313
 IR Inten    --      8.5395                30.1098                15.2172

 - Thermochemistry -
 -------------------
 Temperature   298.150 Kelvin.  Pressure   1.00000 Atm.
 Atom     1 has atomic number  6 and mass  12.00000

 Molecular mass:   103.07590 amu.
 Principal axes and moments of inertia in atomic units:
                           1         2         3
     Eigenvalues --   443.250291042.137291070.92952
           X            1.00000   0.00274  -0.00115
           Y           -0.00273   0.99999   0.00444
           Z            0.00116  -0.00444   0.99999
 This molecule is an asymmetric top.
 Rotational symmetry number  1.
 Warning -- assumption of classical behavior for rotation
           may cause significant error
 Rotational temperatures (Kelvin)      0.19541     0.08311     0.08088
 Rotational constants (GHZ):           4.07161     1.73177     1.68521
 Zero-point vibrational energy     407940.7 (Joules/Mol)
                                   97.50018 (Kcal/Mol)
 Warning -- explicit consideration of  12 degrees of freedom as
           vibrations may cause significant error
 Vibrational temperatures:     96.73   138.64   308.40   330.61   375.38
          (Kelvin)            382.46   441.80   483.39   560.56   584.36
                              690.77   795.69  1064.53  1271.08  1312.65
                             1341.71  1358.89  1386.85  1393.98  1508.34
                             1561.20  1668.27  1773.41  1795.81  1835.67
                             1900.52  1968.56  2020.38  2026.32  2067.86
                             2115.95  2134.31  2142.85  2146.03  2170.89
                             2171.29  2188.65  4345.87  4352.30  4361.37
                             4386.68  4432.20  4437.25  4440.42  4447.53
                             4460.67  4467.17  4481.70

 Zero-point correction=                           0.155376 (Hartree/Particle)
 Thermal correction to Energy=                    0.164154
 Thermal correction to Enthalpy=                  0.165099
 Thermal correction to Gibbs Free Energy=         0.121826
 Sum of electronic and zero-point Energies=           -347.455184
 Sum of electronic and thermal Energies=              -347.446406
 Sum of electronic and thermal Enthalpies=            -347.445462
 Sum of electronic and thermal Free Energies=         -347.488734

                     E (Thermal)             CV                S
                      KCal/Mol        Cal/Mol-Kelvin    Cal/Mol-Kelvin
 Total                  103.008             31.573             91.074
 Electronic               0.000              0.000              1.377
 Translational            0.889              2.981             39.808
 Rotational               0.889              2.981             27.694
 Vibrational            101.231             25.611             22.194
 Vibration     1          0.598              1.970              4.233
 Vibration     2          0.603              1.952              3.527
 Vibration     3          0.644              1.819              2.006
 Vibration     4          0.652              1.796              1.881
 Vibration     5          0.669              1.744              1.656
 Vibration     6          0.672              1.736              1.623
 Vibration     7          0.697              1.660              1.378
 Vibration     8          0.717              1.604              1.231
 Vibration     9          0.758              1.492              1.002
 Vibration    10          0.771              1.457              0.940
 Vibration    11          0.836              1.294              0.710
 Vibration    12          0.908              1.133              0.538

 Optimization completed.
    -- Stationary point found.
 Normal termination of Gaussian 16 at Tue Apr 12 17:00:51 2022.
