 Gaussian 16, Revision B.01,
 Gaussian 16:  ES64L-G16RevB.01 20-Dec-2017

 ---------------------------------------------------
 # opt=(calcfc,ts,noeigentest) freq ub3lyp cc-pvtz+d
 ---------------------------------------------------

 -----------------------------
 RneopO2-H-Shift-TS3-b3lyp-c-a
 -----------------------------
 Symbolic Z-matrix:
 Charge =  0 Multiplicity = 2

 SCF Done:  E(UB3LYP) =  -347.566651078     A.U. after   19 cycles
 SCF Done:  E(UB3LYP) =  -347.566523333     A.U. after   14 cycles
 SCF Done:  E(UB3LYP) =  -347.566524500     A.U. after   10 cycles
 Optimization completed.
    -- Stationary point found.
 Normal termination of Gaussian 16 at Tue Mar 29 18:12:13 2022.

 ---------------------------------------------------------------------
 #N Geom=AllCheck Guess=TCheck SCRF=Check GenChk UB3LYP/CC-pVTZ+d Freq
 ---------------------------------------------------------------------

 Structure from the checkpoint file:  "RneopO2-H-Shift-TS3-b3lyp-c-a.chk"
 -----------------------------
 RneopO2-H-Shift-TS3-b3lyp-c-a
 -----------------------------
 Charge =  0 Multiplicity = 2

                         Standard orientation:
 ---------------------------------------------------------------------
 Center     Atomic      Atomic             Coordinates (Angstroms)
 Number     Number       Type             X           Y           Z
 ---------------------------------------------------------------------
      1          6           0        0.707075    0.050851    0.025572
      2          6           0        0.154903    1.383846    0.478728
      3          1           0        0.347332    1.680071    1.505029
      4          1           0        0.214681    2.201897   -0.234343
      5          1           0       -1.210426    1.104396    0.420922
      6          6           0        1.062317   -0.825013    1.235364
      7          1           0        0.185503   -1.005972    1.856105
      8          1           0        1.454887   -1.791986    0.915548
      9          1           0        1.822977   -0.341219    1.849769
     10          6           0        1.940430    0.246386   -0.878643
     11          1           0        2.313099   -0.715685   -1.237053
     12          1           0        1.703309    0.863991   -1.746031
     13          1           0        2.745683    0.733762   -0.328522
     14          6           0       -0.386113   -0.666027   -0.823831
     15          1           0       -0.571399   -0.122368   -1.753789
     16          1           0       -0.088067   -1.691569   -1.047738
     17          8           0       -2.134812    0.520714    0.033612
     18          8           0       -1.588845   -0.777662   -0.086492
 ---------------------------------------------------------------------

 SCF Done:  E(UB3LYP) =  -347.566524500     A.U. after    1 cycles

 The electronic state is 2-A.
 Alpha  occ. eigenvalues --  -19.19691 -19.18157 -10.23339 -10.20956 -10.19348
 Alpha  occ. eigenvalues --  -10.18085 -10.17058  -1.13336  -0.89618  -0.83753
 Alpha  occ. eigenvalues --   -0.70766  -0.70239  -0.67543  -0.56841  -0.53044
 Alpha  occ. eigenvalues --   -0.49831  -0.48112  -0.45573  -0.44763  -0.42440
 Alpha  occ. eigenvalues --   -0.41102  -0.39297  -0.38433  -0.36744  -0.36537
 Alpha  occ. eigenvalues --   -0.34774  -0.33024  -0.26945  -0.22912
 Alpha virt. eigenvalues --    0.02392   0.03696   0.06512   0.06940   0.07136
 Alpha virt. eigenvalues --    0.09013   0.09177   0.10603   0.12102   0.12797
 Alpha virt. eigenvalues --    0.13790   0.13941   0.15239   0.16629   0.17993

  Beta  occ. eigenvalues --  -19.19456 -19.17049 -10.23283 -10.20962 -10.18440
  Beta  occ. eigenvalues --  -10.17999 -10.17055  -1.12164  -0.87951  -0.83038
  Beta  occ. eigenvalues --   -0.70304  -0.69325  -0.66585  -0.56184  -0.51621
  Beta  occ. eigenvalues --   -0.49375  -0.47531  -0.45050  -0.44418  -0.40992
  Beta  occ. eigenvalues --   -0.40824  -0.38860  -0.37925  -0.35978  -0.35339
  Beta  occ. eigenvalues --   -0.34505  -0.31464  -0.25443
  Beta virt. eigenvalues --   -0.11666   0.02511   0.04384   0.06575   0.07083
  Beta virt. eigenvalues --    0.07408   0.09110   0.09411   0.10750   0.12176
  Beta virt. eigenvalues --    0.12962   0.13870   0.14144   0.15469   0.16913

 Mulliken charges and spin densities:
               1          2
     1  C    0.091326  -0.016053
     2  C   -0.313923   0.582994
     3  H    0.113173  -0.006820
     4  H    0.108294  -0.009546
     5  H    0.199438  -0.032184
     6  C   -0.303469   0.001295
     7  H    0.111797   0.000869
     8  H    0.087466  -0.000645
     9  H    0.093951   0.000365
    10  C   -0.301754   0.031087
    11  H    0.094810   0.005878
    12  H    0.097250  -0.000959
    13  H    0.100510   0.002575
    14  C    0.021767   0.018548
    15  H    0.084628   0.003169
    16  H    0.089712   0.000694
    17  O   -0.218042   0.347111
    18  O   -0.156933   0.071620
 Sum of Mulliken charges =  -0.00000   1.00000

 Dipole moment (field-independent basis, Debye):
    X=              3.1200    Y=              0.3217    Z=             -0.4967  Tot=              3.1757
 Quadrupole moment (field-independent basis, Debye-Ang):
   XX=            -51.6602   YY=            -43.3140   ZZ=            -43.4795
   XY=             -0.4542   XZ=              0.3336   YZ=              1.1193

  Exact polarizability:  81.793   2.570  73.664   1.164   3.850  66.993
 Approx polarizability: 119.344   6.174 113.959   1.807   7.955  93.714

 ******    1 imaginary frequencies (negative Signs) ******

                      1                      2                      3
                      A                      A                      A
 Frequencies --  -1672.4632               105.8628               230.0798
 Red. masses --      1.1108                 3.4464                 1.0300
 Frc consts  --      1.8307                 0.0228                 0.0321
 IR Inten    --    330.8381                 1.9432                 0.1483

                      4                      5                      6
                      A                      A                      A
 Frequencies --    248.5721               274.1338               306.2501
 Red. masses --      1.1765                 2.7662                 2.2267
 Frc consts  --      0.0428                 0.1225                 0.1230
 IR Inten    --      0.0779                 1.7379                 1.5860

                      7                      8                      9
                      A                      A                      A
 Frequencies --    326.2725               391.1029               433.2567
 Red. masses --      2.2837                 1.8450                 2.2395
 Frc consts  --      0.1432                 0.1663                 0.2477
 IR Inten    --      1.0240                 0.3088                 1.2167

                     10                     11                     12
                      A                      A                      A
 Frequencies --    454.6837               487.6370               539.6671
 Red. masses --      1.9586                 2.3812                 3.7980
 Frc consts  --      0.2386                 0.3336                 0.6517
 IR Inten    --      3.1321                 0.2814                 1.6877

                     13                     14                     15
                      A                      A                      A
 Frequencies --    644.9972               759.4820               876.7261
 Red. masses --      2.6370                 3.6091                 2.4746
 Frc consts  --      0.6464                 1.2265                 1.1207
 IR Inten    --      4.1408                 6.5028                13.0138

                     16                     17                     18
                      A                      A                      A
 Frequencies --    911.0838               939.2342               943.4082
 Red. masses --      3.6298                 1.6596                 2.0205
 Frc consts  --      1.7752                 0.8626                 1.0595
 IR Inten    --     17.5748                 1.5646                 9.5076

                     19                     20                     21
                      A                      A                      A
 Frequencies --    972.6930               998.5053              1028.7185
 Red. masses --      1.2607                 1.5325                 2.0120
 Frc consts  --      0.7027                 0.9002                 1.2545
 IR Inten    --      1.5301                 4.3895                 1.4369

                     22                     23                     24
                      A                      A                      A
 Frequencies --   1045.9490              1074.1655              1117.6902
 Red. masses --      2.4852                 1.4730                 1.1336
 Frc consts  --      1.6019                 1.0014                 0.8343
 IR Inten    --      8.0661                 0.4921                19.4527

                     25                     26                     27
                      A                      A                      A
 Frequencies --   1200.3641              1224.6274              1244.4312
 Red. masses --      2.3076                 2.3572                 1.9605
 Frc consts  --      1.9590                 2.0828                 1.7888
 IR Inten    --      1.4389                 5.2184                 2.0626

                     28                     29                     30
                      A                      A                      A
 Frequencies --   1311.4523              1358.8324              1399.8725
 Red. masses --      1.5529                 1.2635                 1.2053
 Frc consts  --      1.5736                 1.3746                 1.3916
 IR Inten    --      2.3063                 1.4888                 6.1621

                     31                     32                     33
                      A                      A                      A
 Frequencies --   1419.5323              1459.3651              1472.1839
 Red. masses --      1.2123                 1.1300                 1.0890
 Frc consts  --      1.4393                 1.4179                 1.3906
 IR Inten    --      4.6447                 2.5593                 0.5630

                     34                     35                     36
                      A                      A                      A
 Frequencies --   1489.4159              1495.6086              1505.2608
 Red. masses --      1.0461                 1.0589                 1.0520
 Frc consts  --      1.3673                 1.3955                 1.4043
 IR Inten    --      1.1259                 5.1575                 5.3166

                     37                     38                     39
                      A                      A                      A
 Frequencies --   1511.9057              1570.6164              3019.3201
 Red. masses --      1.0561                 1.0548                 1.0470
 Frc consts  --      1.4223                 1.5330                 5.6238
 IR Inten    --     12.1913                26.0023                13.4174

                     40                     41                     42
                      A                      A                      A
 Frequencies --   3023.1685              3029.7630              3081.5034
 Red. masses --      1.0437                 1.0379                 1.0927
 Frc consts  --      5.6200                 5.6135                 6.1134
 IR Inten    --     51.0339                24.2208                 0.1267

                     43                     44                     45
                      A                      A                      A
 Frequencies --   3083.8540              3085.4367              3089.7680
 Red. masses --      1.0897                 1.0763                 1.1010
 Frc consts  --      6.1058                 6.0367                 6.1927
 IR Inten    --      9.6007                 4.9133                53.8400

                     46                     47                     48
                      A                      A                      A
 Frequencies --   3095.8197              3106.0438              3170.1797
 Red. masses --      1.1022                 1.1011                 1.1130
 Frc consts  --      6.2238                 6.2587                 6.5907
 IR Inten    --     26.3061                14.1459                10.7651

 - Thermochemistry -
 -------------------
 Temperature   298.150 Kelvin.  Pressure   1.00000 Atm.
 Atom     1 has atomic number  6 and mass  12.00000

 Molecular mass:   103.07590 amu.
 Principal axes and moments of inertia in atomic units:
                           1         2         3
     Eigenvalues --   453.82877 930.45914 971.45534
           X            0.99992  -0.01185  -0.00371
           Y            0.01167   0.99888  -0.04586
           Z            0.00425   0.04581   0.99894
 This molecule is an asymmetric top.
 Rotational symmetry number  1.
 Warning -- assumption of classical behavior for rotation
           may cause significant error
 Rotational temperatures (Kelvin)      0.19085     0.09309     0.08916
 Rotational constants (GHZ):           3.97670     1.93962     1.85777
    1 imaginary frequencies ignored.
 Zero-point vibrational energy     392126.9 (Joules/Mol)
                                   93.72058 (Kcal/Mol)
 Warning -- explicit consideration of  11 degrees of freedom as
           vibrations may cause significant error
 Vibrational temperatures:    152.31   331.03   357.64   394.42   440.63
          (Kelvin)            469.43   562.71   623.36   654.19   701.60
                              776.46   928.01  1092.73  1261.41  1310.85
                             1351.35  1357.35  1399.49  1436.63  1480.10
                             1504.89  1545.48  1608.11  1727.06  1761.97
                             1790.46  1886.89  1955.06  2014.10  2042.39
                             2099.70  2118.14  2142.94  2151.85  2165.73
                             2175.30  2259.77  4344.13  4349.67  4359.15
                             4433.60  4436.98  4439.26  4445.49  4454.19
                             4468.90  4561.18

 Zero-point correction=                           0.149353 (Hartree/Particle)
 Thermal correction to Energy=                    0.157191
 Thermal correction to Enthalpy=                  0.158135
 Thermal correction to Gibbs Free Energy=         0.117427
 Sum of electronic and zero-point Energies=           -347.417171
 Sum of electronic and thermal Energies=              -347.409334
 Sum of electronic and thermal Enthalpies=            -347.408389
 Sum of electronic and thermal Free Energies=         -347.449098

                     E (Thermal)             CV                S
                      KCal/Mol        Cal/Mol-Kelvin    Cal/Mol-Kelvin
 Total                   98.639             30.317             85.679
 Electronic               0.000              0.000              1.377
 Translational            0.889              2.981             39.808
 Rotational               0.889              2.981             27.508
 Vibrational             96.861             24.355             16.985
 Vibration     1          0.605              1.945              3.343
 Vibration     2          0.652              1.795              1.878
 Vibration     3          0.662              1.765              1.741
 Vibration     4          0.676              1.721              1.570
 Vibration     5          0.697              1.662              1.383
 Vibration     6          0.710              1.623              1.278
 Vibration     7          0.759              1.489              0.996
 Vibration     8          0.794              1.398              0.848
 Vibration     9          0.813              1.351              0.782
 Vibration    10          0.844              1.277              0.690
 Vibration    11          0.895              1.162              0.566

 Optimization completed.
    -- Stationary point found.
 Normal termination of Gaussian 16 at Tue Mar 29 18:18:48 2022.
