 Gaussian 16, Revision B.01,
 Gaussian 16:  ES64L-G16RevB.01 20-Dec-2017

 ---------------------------------------------------
 # opt=(calcfc,ts,noeigentest) freq ub3lyp cc-pvtz+d
 ---------------------------------------------------

 ------------------------------
 QOOHneop-OH-Elim-TS5-b3lyp-c-H
 ------------------------------
 Symbolic Z-matrix:
 Charge =  0 Multiplicity = 2

 SCF Done:  E(UB3LYP) =  -347.439227807     A.U. after   22 cycles
 SCF Done:  E(UB3LYP) =  -347.474359048     A.U. after   32 cycles
 SCF Done:  E(UB3LYP) =  -347.498300559     A.U. after   24 cycles
 SCF Done:  E(UB3LYP) =  -347.509522263     A.U. after   24 cycles
 SCF Done:  E(UB3LYP) =  -347.514886742     A.U. after   24 cycles
 SCF Done:  E(UB3LYP) =  -347.517128536     A.U. after   26 cycles
 SCF Done:  E(UB3LYP) =  -347.519822645     A.U. after   31 cycles
 SCF Done:  E(UB3LYP) =  -347.525243143     A.U. after   43 cycles
 SCF Done:  E(UB3LYP) =  -347.526745543     A.U. after   23 cycles
 SCF Done:  E(UB3LYP) =  -347.530683165     A.U. after   21 cycles
 SCF Done:  E(UB3LYP) =  -347.551484796     A.U. after    9 cycles
 SCF Done:  E(UB3LYP) =  -347.551487429     A.U. after   11 cycles
 SCF Done:  E(UB3LYP) =  -347.551491046     A.U. after   12 cycles
 SCF Done:  E(UB3LYP) =  -347.551494648     A.U. after   12 cycles
 SCF Done:  E(UB3LYP) =  -347.551495758     A.U. after   12 cycles
 SCF Done:  E(UB3LYP) =  -347.551496039     A.U. after   10 cycles
 SCF Done:  E(UB3LYP) =  -347.551496149     A.U. after    9 cycles
 SCF Done:  E(UB3LYP) =  -347.551496191     A.U. after    8 cycles
 SCF Done:  E(UB3LYP) =  -347.551496211     A.U. after    7 cycles
 Optimization completed.
    -- Stationary point found.
 Normal termination of Gaussian 16 at Sat Apr  2 22:13:35 2022.

 ---------------------------------------------------------------------
 #N Geom=AllCheck Guess=TCheck SCRF=Check GenChk UB3LYP/CC-pVTZ+d Freq
 ---------------------------------------------------------------------

 Structure from the checkpoint file:  "QOOHneop-OH-Elim-TS5-b3lyp-c-H.chk"
 ------------------------------
 QOOHneop-OH-Elim-TS5-b3lyp-c-H
 ------------------------------
 Charge =  0 Multiplicity = 2

                         Standard orientation:
 ---------------------------------------------------------------------
 Center     Atomic      Atomic             Coordinates (Angstroms)
 Number     Number       Type             X           Y           Z
 ---------------------------------------------------------------------
      1          6           0        0.906396   -0.004647   -0.007550
      2          6           0        0.403864   -0.272665    1.392132
      3          1           0        0.316899   -1.292238    1.741558
      4          1           0        0.407140    0.502206    2.144696
      5          1           0       -3.275789   -0.488035    0.270088
      6          6           0        1.991509   -0.988273   -0.456328
      7          1           0        1.665813   -2.021779   -0.330878
      8          1           0        2.235009   -0.837970   -1.510159
      9          1           0        2.906540   -0.848012    0.121808
     10          6           0        1.382912    1.444141   -0.147539
     11          1           0        1.667054    1.658703   -1.178898
     12          1           0        0.592875    2.139070    0.138728
     13          1           0        2.250733    1.632043    0.487515
     14          6           0       -0.437976   -0.216282   -0.725362
     15          1           0       -0.661212    0.513542   -1.504364
     16          1           0       -0.551787   -1.224551   -1.133629
     17          8           0       -2.816356    0.094721   -0.348284
     18          8           0       -1.312832   -0.033049    0.400961
 ---------------------------------------------------------------------

 SCF Done:  E(UB3LYP) =  -347.551496211     A.U. after    1 cycles

 The electronic state is 2-A.
 Alpha  occ. eigenvalues --  -19.16809 -19.13668 -10.21826 -10.21311 -10.20429
 Alpha  occ. eigenvalues --  -10.17472 -10.16954  -1.03627  -0.93105  -0.82153
 Alpha  occ. eigenvalues --   -0.70109  -0.69660  -0.66634  -0.54966  -0.49236
 Alpha  occ. eigenvalues --   -0.48137  -0.46735  -0.44710  -0.43669  -0.41969
 Alpha  occ. eigenvalues --   -0.39021  -0.38744  -0.38296  -0.35798  -0.34944
 Alpha  occ. eigenvalues --   -0.33546  -0.30443  -0.25761  -0.20767
 Alpha virt. eigenvalues --   -0.03944   0.02832   0.05562   0.07022   0.07514
 Alpha virt. eigenvalues --    0.08177   0.09172   0.09968   0.10529   0.11633
 Alpha virt. eigenvalues --    0.13482   0.14085   0.14493   0.15089   0.17934

  Beta  occ. eigenvalues --  -19.16893 -19.12494 -10.21742 -10.20490 -10.20249
  Beta  occ. eigenvalues --  -10.17413 -10.16946  -1.03024  -0.91196  -0.81728
  Beta  occ. eigenvalues --   -0.70009  -0.67839  -0.66240  -0.54481  -0.48801
  Beta  occ. eigenvalues --   -0.47487  -0.46335  -0.44291  -0.43062  -0.41452
  Beta  occ. eigenvalues --   -0.38875  -0.38579  -0.37707  -0.34948  -0.34653
  Beta  occ. eigenvalues --   -0.32242  -0.29782  -0.25215
  Beta virt. eigenvalues --   -0.08860  -0.00320   0.03008   0.06091   0.07086
  Beta virt. eigenvalues --    0.07861   0.08308   0.09298   0.10097   0.10642
  Beta virt. eigenvalues --    0.11688   0.13734   0.14117   0.14533   0.15165

 Mulliken charges and spin densities:
               1          2
     1  C    0.104153  -0.035168
     2  C   -0.160602   0.704499
     3  H    0.117578  -0.017828
     4  H    0.117900  -0.018774
     5  H    0.215725  -0.006186
     6  C   -0.305359   0.018322
     7  H    0.093630  -0.000911
     8  H    0.095956   0.005263
     9  H    0.094733   0.003006
    10  C   -0.316392   0.001074
    11  H    0.091716  -0.000190
    12  H    0.108387   0.000179
    13  H    0.091112   0.001496
    14  C    0.082303   0.033974
    15  H    0.076758   0.000204
    16  H    0.062451   0.000027
    17  O   -0.317061   0.421879
    18  O   -0.252986  -0.110867
 Sum of Mulliken charges =  -0.00000   1.00000

 Dipole moment (field-independent basis, Debye):
    X=              2.1748    Y=             -1.1352    Z=              0.7168  Tot=              2.5558
 Quadrupole moment (field-independent basis, Debye-Ang):
   XX=            -46.4659   YY=            -43.7552   ZZ=            -43.0790
   XY=              3.4132   XZ=             -2.3808   YZ=             -0.5154

  Exact polarizability: 107.895  -1.215  65.171  11.307  -1.271  72.073
 Approx polarizability: 158.826  -5.862  89.722  29.194  -4.406 111.130

 ******    1 imaginary frequencies (negative Signs) ******

                      1                      2                      3
                      A                      A                      A
 Frequencies --   -779.6758                69.1582               121.0792
 Red. masses --     13.3172                 2.9410                 1.3532
 Frc consts  --      4.7697                 0.0083                 0.0117
 IR Inten    --    387.7937                 0.8183                79.7887

                      4                      5                      6
                      A                      A                      A
 Frequencies --    155.5432               213.4047               240.5013
 Red. masses --      3.2277                 2.1216                 1.1574
 Frc consts  --      0.0460                 0.0569                 0.0394
 IR Inten    --     21.5830                 2.0841                 0.4769

                      7                      8                      9
                      A                      A                      A
 Frequencies --    280.7748               314.8897               326.8760
 Red. masses --      1.1343                 2.6365                 2.2861
 Frc consts  --      0.0527                 0.1540                 0.1439
 IR Inten    --      0.1669                 2.4557                 0.8693

                     10                     11                     12
                      A                      A                      A
 Frequencies --    397.7864               414.1187               428.6868
 Red. masses --      3.1402                 2.1089                 2.8065
 Frc consts  --      0.2928                 0.2131                 0.3039
 IR Inten    --     18.0028                 1.0404                11.0029

                     13                     14                     15
                      A                      A                      A
 Frequencies --    535.3341               565.6617               778.9146
 Red. masses --      1.1348                 2.9827                 3.5523
 Frc consts  --      0.1916                 0.5623                 1.2698
 IR Inten    --      0.5089                10.1579                 0.4452

                     16                     17                     18
                      A                      A                      A
 Frequencies --    829.1723               907.8743               923.6847
 Red. masses --      1.3073                 1.8718                 1.9002
 Frc consts  --      0.5295                 0.9090                 0.9552
 IR Inten    --      6.8475                 0.5388                 1.0366

                     19                     20                     21
                      A                      A                      A
 Frequencies --    956.1848               969.5396               995.7464
 Red. masses --      1.2935                 1.3381                 1.8622
 Frc consts  --      0.6968                 0.7411                 1.0879
 IR Inten    --      1.8390                 4.5574                31.4996

                     22                     23                     24
                      A                      A                      A
 Frequencies --   1003.9663              1058.3862              1093.2361
 Red. masses --      1.7032                 1.3475                 1.9725
 Frc consts  --      1.0115                 0.8893                 1.3890
 IR Inten    --     29.0371                 2.6617                45.1167

                     25                     26                     27
                      A                      A                      A
 Frequencies --   1186.8764              1224.5991              1242.1801
 Red. masses --      1.2174                 2.4569                 2.5606
 Frc consts  --      1.0104                 2.1708                 2.3279
 IR Inten    --      1.6438                 1.1466                 1.6418

                     28                     29                     30
                      A                      A                      A
 Frequencies --   1284.5027              1346.5597              1402.6298
 Red. masses --      2.5037                 1.3708                 1.2303
 Frc consts  --      2.4339                 1.4645                 1.4261
 IR Inten    --      3.4381                 2.8010                 7.4692

                     31                     32                     33
                      A                      A                      A
 Frequencies --   1419.1037              1470.1641              1489.0961
 Red. masses --      1.2175                 1.1525                 1.0460
 Frc consts  --      1.4446                 1.4676                 1.3665
 IR Inten    --      2.9491                 3.4188                 0.3306

                     34                     35                     36
                      A                      A                      A
 Frequencies --   1491.1290              1504.3355              1512.0771
 Red. masses --      1.0519                 1.0536                 1.0628
 Frc consts  --      1.3780                 1.4048                 1.4317
 IR Inten    --      3.8842                 5.2105                 7.9286

                     37                     38                     39
                      A                      A                      A
 Frequencies --   1523.5266              3010.6206              3020.4076
 Red. masses --      1.0885                 1.0588                 1.0347
 Frc consts  --      1.4887                 5.6542                 5.5617
 IR Inten    --      2.0627                42.4216                32.6162

                     40                     41                     42
                      A                      A                      A
 Frequencies --   3026.5377              3070.4740              3081.2668
 Red. masses --      1.0358                 1.1039                 1.1019
 Frc consts  --      5.5903                 6.1318                 6.1639
 IR Inten    --     26.5961                22.9767                 2.7987

                     43                     44                     45
                      A                      A                      A
 Frequencies --   3087.1387              3089.5113              3097.0692
 Red. masses --      1.1014                 1.1022                 1.1021
 Frc consts  --      6.1844                 6.1988                 6.2286
 IR Inten    --     42.2925                32.6009                21.9342

                     46                     47                     48
                      A                      A                      A
 Frequencies --   3138.4276              3241.1295              3790.5885
 Red. masses --      1.0512                 1.1196                 1.0680
 Frc consts  --      6.1007                 6.9295                 9.0411
 IR Inten    --      9.9048                 7.1484                53.8281

 - Thermochemistry -
 -------------------
 Temperature   298.150 Kelvin.  Pressure   1.00000 Atm.
 Atom     1 has atomic number  6 and mass  12.00000

 Molecular mass:   103.07590 amu.
 Principal axes and moments of inertia in atomic units:
                           1         2         3
     Eigenvalues --   393.397401168.651131189.02823
           X            0.99992   0.00828  -0.00966
           Y           -0.00783   0.99892   0.04578
           Z            0.01003  -0.04570   0.99890
 This molecule is an asymmetric top.
 Rotational symmetry number  1.
 Rotational temperatures (Kelvin)      0.22017     0.07411     0.07284
 Rotational constants (GHZ):           4.58758     1.54429     1.51783
    1 imaginary frequencies ignored.
 Zero-point vibrational energy     396744.3 (Joules/Mol)
                                   94.82417 (Kcal/Mol)
 Warning -- explicit consideration of  13 degrees of freedom as
           vibrations may cause significant error
 Vibrational temperatures:     99.50   174.21   223.79   307.04   346.03
          (Kelvin)            403.97   453.06   470.30   572.33   595.82
                              616.78   770.23   813.86  1120.68  1192.99
                             1306.23  1328.98  1375.74  1394.95  1432.66
                             1444.48  1522.78  1572.92  1707.65  1761.93
                             1787.22  1848.11  1937.40  2018.07  2041.77
                             2115.24  2142.48  2145.40  2164.40  2175.54
                             2192.01  4331.61  4345.69  4354.51  4417.73
                             4433.26  4441.70  4445.12  4455.99  4515.50
                             4663.26  5453.81

 Zero-point correction=                           0.151112 (Hartree/Particle)
 Thermal correction to Energy=                    0.160195
 Thermal correction to Enthalpy=                  0.161139
 Thermal correction to Gibbs Free Energy=         0.117370
 Sum of electronic and zero-point Energies=           -347.400384
 Sum of electronic and thermal Energies=              -347.391302
 Sum of electronic and thermal Enthalpies=            -347.390357
 Sum of electronic and thermal Free Energies=         -347.434126

                     E (Thermal)             CV                S
                      KCal/Mol        Cal/Mol-Kelvin    Cal/Mol-Kelvin
 Total                  100.524             32.902             92.119
 Electronic               0.000              0.000              1.377
 Translational            0.889              2.981             39.808
 Rotational               0.889              2.981             27.793
 Vibrational             98.746             26.940             23.140
 Vibration     1          0.598              1.969              4.177
 Vibration     2          0.609              1.932              3.083
 Vibration     3          0.620              1.896              2.603
 Vibration     4          0.644              1.821              2.014
 Vibration     5          0.658              1.778              1.799
 Vibration     6          0.680              1.709              1.529
 Vibration     7          0.702              1.645              1.337
 Vibration     8          0.711              1.622              1.275
 Vibration     9          0.764              1.475              0.971
 Vibration    10          0.778              1.440              0.912
 Vibration    11          0.790              1.408              0.863
 Vibration    12          0.890              1.172              0.575
 Vibration    13          0.922              1.106              0.513

 Optimization completed.
    -- Stationary point found.
 Normal termination of Gaussian 16 at Sat Apr  2 22:19:58 2022.
