 Gaussian 16, Revision B.01,
 Gaussian 16:  ES64L-G16RevB.01 20-Dec-2017

 ---------------------------------------------------
 # opt=(calcfc,ts,noeigentest) freq ub3lyp cc-pvtz+d
 ---------------------------------------------------

 -------------------------------
 QOOHneop-OOH-Elim-TS4-b3lyp-c-A
 -------------------------------
 Symbolic Z-matrix:
 Charge =  0 Multiplicity = 2

 SCF Done:  E(UB3LYP) =  -347.499233229     A.U. after   20 cycles
 SCF Done:  E(UB3LYP) =  -347.490011658     A.U. after   21 cycles
 SCF Done:  E(UB3LYP) =  -347.481603687     A.U. after   35 cycles
 SCF Done:  E(UB3LYP) =  -347.479483831     A.U. after   18 cycles
 SCF Done:  E(UB3LYP) =  -347.478092409     A.U. after   15 cycles
 SCF Done:  E(UB3LYP) =  -347.476725004     A.U. after   17 cycles
 SCF Done:  E(UB3LYP) =  -347.475671349     A.U. after   16 cycles
 SCF Done:  E(UB3LYP) =  -347.475080591     A.U. after   16 cycles
 SCF Done:  E(UB3LYP) =  -347.474907289     A.U. after   15 cycles
 SCF Done:  E(UB3LYP) =  -347.475428740     A.U. after   15 cycles
 SCF Done:  E(UB3LYP) =  -347.504169945     A.U. after   12 cycles
 SCF Done:  E(UB3LYP) =  -347.504170421     A.U. after   10 cycles
 SCF Done:  E(UB3LYP) =  -347.504170580     A.U. after   11 cycles
 SCF Done:  E(UB3LYP) =  -347.504170847     A.U. after   10 cycles
 SCF Done:  E(UB3LYP) =  -347.504121132     A.U. after   14 cycles
 SCF Done:  E(UB3LYP) =  -347.504170436     A.U. after   14 cycles
 SCF Done:  E(UB3LYP) =  -347.504171168     A.U. after   11 cycles
 SCF Done:  E(UB3LYP) =  -347.504171210     A.U. after    9 cycles
 SCF Done:  E(UB3LYP) =  -347.504171214     A.U. after    8 cycles
 Optimization completed.
    -- Stationary point found.
 Normal termination of Gaussian 16 at Wed Mar 30 18:33:37 2022.

 ---------------------------------------------------------------------
 #N Geom=AllCheck Guess=TCheck SCRF=Check GenChk UB3LYP/CC-pVTZ+d Freq
 ---------------------------------------------------------------------

 Structure from the checkpoint file:  "QOOHneop-OOH-Elim-TS4-b3lyp-c-A.chk"
 -------------------------------
 QOOHneop-OOH-Elim-TS4-b3lyp-c-A
 -------------------------------
 Charge =  0 Multiplicity = 2

                         Standard orientation:
 ---------------------------------------------------------------------
 Center     Atomic      Atomic             Coordinates (Angstroms)
 Number     Number       Type             X           Y           Z
 ---------------------------------------------------------------------
      1          6           0        1.051209   -0.043657    0.026330
      2          6           0        0.169407    0.214992    1.186033
      3          1           0        0.051473    1.212997    1.575672
      4          1           0       -0.451165   -0.567179    1.591307
      5          1           0       -3.046455   -0.660042   -0.764728
      6          6           0        1.519893   -1.490496   -0.096900
      7          1           0        0.686921   -2.184282    0.020926
      8          1           0        1.975006   -1.667346   -1.073471
      9          1           0        2.260633   -1.718789    0.671455
     10          6           0        2.195469    0.953427   -0.129967
     11          1           0        2.675026    0.843888   -1.104514
     12          1           0        1.838374    1.980234   -0.041325
     13          1           0        2.949628    0.791362    0.642497
     14          6           0       -0.163545    0.277914   -0.793791
     15          1           0       -0.172105    1.238666   -1.287269
     16          1           0       -0.604517   -0.543551   -1.338868
     17          8           0       -2.668841   -0.481428    0.107766
     18          8           0       -1.930837    0.706548   -0.113004
 ---------------------------------------------------------------------

 SCF Done:  E(UB3LYP) =  -347.504171214     A.U. after    1 cycles

 The electronic state is 2-A.
 Alpha  occ. eigenvalues --  -19.16832 -19.15578 -10.22224 -10.20555 -10.19610
 Alpha  occ. eigenvalues --  -10.17338 -10.17266  -1.09276  -0.86377  -0.82911
 Alpha  occ. eigenvalues --   -0.71088  -0.70259  -0.66111  -0.55306  -0.50135
 Alpha  occ. eigenvalues --   -0.48387  -0.46076  -0.45296  -0.43176  -0.41934
 Alpha  occ. eigenvalues --   -0.40289  -0.39203  -0.38712  -0.38052  -0.34742
 Alpha  occ. eigenvalues --   -0.34156  -0.27434  -0.25342  -0.18791
 Alpha virt. eigenvalues --   -0.01826   0.02725   0.03895   0.07132   0.07776
 Alpha virt. eigenvalues --    0.08398   0.08993   0.09626   0.10272   0.11729
 Alpha virt. eigenvalues --    0.12120   0.14249   0.14619   0.15064   0.18348

  Beta  occ. eigenvalues --  -19.16707 -19.14282 -10.22371 -10.20556 -10.18676
  Beta  occ. eigenvalues --  -10.17311 -10.17239  -1.08098  -0.85669  -0.80993
  Beta  occ. eigenvalues --   -0.70516  -0.70208  -0.64988  -0.54745  -0.49674
  Beta  occ. eigenvalues --   -0.48116  -0.45819  -0.44943  -0.42831  -0.40899
  Beta  occ. eigenvalues --   -0.39315  -0.38672  -0.38502  -0.37013  -0.34525
  Beta  occ. eigenvalues --   -0.33318  -0.24927  -0.24107
  Beta virt. eigenvalues --   -0.07545   0.00422   0.02790   0.04144   0.07210
  Beta virt. eigenvalues --    0.08175   0.08608   0.09262   0.09738   0.10668
  Beta virt. eigenvalues --    0.11820   0.12331   0.14242   0.14793   0.15137

 Mulliken charges and spin densities:
               1          2
     1  C    0.157293  -0.004417
     2  C   -0.222782   0.652745
     3  H    0.127923  -0.017244
     4  H    0.137710  -0.016256
     5  H    0.217073  -0.000634
     6  C   -0.308430   0.007722
     7  H    0.095777   0.000393
     8  H    0.092589  -0.000088
     9  H    0.094853   0.005638
    10  C   -0.306469   0.007566
    11  H    0.093395  -0.000092
    12  H    0.092770   0.000096
    13  H    0.094474   0.006543
    14  C   -0.120043  -0.101691
    15  H    0.125179   0.010452
    16  H    0.097617   0.015175
    17  O   -0.221955   0.039972
    18  O   -0.246972   0.394118
 Sum of Mulliken charges =  -0.00000   1.00000

 Dipole moment (field-independent basis, Debye):
    X=              1.8394    Y=             -0.7682    Z=             -1.5171  Tot=              2.5050
 Quadrupole moment (field-independent basis, Debye-Ang):
   XX=            -46.6644   YY=            -44.1922   ZZ=            -43.1706
   XY=              3.1457   XZ=              3.9931   YZ=              1.1228

  Exact polarizability: 105.546   1.914  68.263   3.670   0.344  71.930
 Approx polarizability: 143.939   0.905  98.384   6.068  -1.229 116.363

 ******    1 imaginary frequencies (negative Signs) ******

                      1                      2                      3
                      A                      A                      A
 Frequencies --   -682.6153                53.2290                65.9449
 Red. masses --      7.0455                 4.1199                 3.7475
 Frc consts  --      1.9343                 0.0069                 0.0096
 IR Inten    --     31.8805                 4.0217                 2.4528

                      4                      5                      6
                      A                      A                      A
 Frequencies --    218.6590               229.7941               242.4906
 Red. masses --      3.1979                 1.0521                 1.8627
 Frc consts  --      0.0901                 0.0327                 0.0645
 IR Inten    --      6.1368                 0.0318                 1.6460

                      7                      8                      9
                      A                      A                      A
 Frequencies --    284.2312               332.6664               351.0875
 Red. masses --      1.7045                 1.9308                 2.2913
 Frc consts  --      0.0811                 0.1259                 0.1664
 IR Inten    --      6.0585                 0.3538                 2.2809

                     10                     11                     12
                      A                      A                      A
 Frequencies --    378.1500               392.1771               414.1708
 Red. masses --      4.2701                 1.2387                 1.8524
 Frc consts  --      0.3598                 0.1122                 0.1872
 IR Inten    --      1.0107                58.5897                 5.3034

                     13                     14                     15
                      A                      A                      A
 Frequencies --    454.2027               581.4693               699.1829
 Red. masses --      3.3599                 1.0468                 1.7080
 Frc consts  --      0.4084                 0.2085                 0.4920
 IR Inten    --      3.2648                 2.2968                17.3422

                     16                     17                     18
                      A                      A                      A
 Frequencies --    753.2800               848.3401               897.1624
 Red. masses --      1.7974                 1.6878                 2.7998
 Frc consts  --      0.6009                 0.7157                 1.3277
 IR Inten    --     21.7039                13.8800                39.1294

                     19                     20                     21
                      A                      A                      A
 Frequencies --    924.4887               932.6014               962.2642
 Red. masses --      1.7156                 2.8005                 1.3115
 Frc consts  --      0.8639                 1.4351                 0.7155
 IR Inten    --     12.4431                61.1794                 1.4704

                     22                     23                     24
                      A                      A                      A
 Frequencies --   1027.5657              1032.2454              1067.8991
 Red. masses --      1.6114                 1.2851                 1.1593
 Frc consts  --      1.0025                 0.8068                 0.7789
 IR Inten    --      6.1004                 3.9986                 1.1009

                     25                     26                     27
                      A                      A                      A
 Frequencies --   1093.5767              1192.8272              1296.7841
 Red. masses --      1.2330                 2.3249                 2.5344
 Frc consts  --      0.8688                 1.9490                 2.5111
 IR Inten    --      1.1446                 3.0498                 0.4541

                     28                     29                     30
                      A                      A                      A
 Frequencies --   1309.3465              1355.1427              1404.4073
 Red. masses --      2.9553                 1.1131                 1.2510
 Frc consts  --      2.9851                 1.2044                 1.4538
 IR Inten    --      2.1483                38.8245                 9.0099

                     31                     32                     33
                      A                      A                      A
 Frequencies --   1415.7479              1432.2422              1477.3386
 Red. masses --      1.2391                 1.1144                 1.1937
 Frc consts  --      1.4633                 1.3469                 1.5350
 IR Inten    --      2.5413                 4.0706                 5.1057

                     34                     35                     36
                      A                      A                      A
 Frequencies --   1487.1305              1490.5616              1504.3633
 Red. masses --      1.0446                 1.0526                 1.0671
 Frc consts  --      1.3612                 1.3779                 1.4228
 IR Inten    --      0.0475                 3.8889                 6.0797

                     37                     38                     39
                      A                      A                      A
 Frequencies --   1509.1494              3020.0294              3024.8682
 Red. masses --      1.0674                 1.0341                 1.0347
 Frc consts  --      1.4323                 5.5567                 5.5778
 IR Inten    --      8.0914                26.5149                36.1641

                     40                     41                     42
                      A                      A                      A
 Frequencies --   3081.9028              3086.3899              3090.2861
 Red. masses --      1.1021                 1.1016                 1.1021
 Frc consts  --      6.1676                 6.1824                 6.2012
 IR Inten    --      0.1157                39.8248                22.5615

                     43                     44                     45
                      A                      A                      A
 Frequencies --   3094.2881              3124.5072              3170.6565
 Red. masses --      1.1018                 1.0519                 1.0504
 Frc consts  --      6.2152                 6.0507                 6.2218
 IR Inten    --     28.8908                11.9662                 0.9980

                     46                     47                     48
                      A                      A                      A
 Frequencies --   3231.1471              3279.9067              3718.9681
 Red. masses --      1.1213                 1.1209                 1.0686
 Frc consts  --      6.8976                 7.1047                 8.7082
 IR Inten    --      7.6987                 1.8997                34.3030

 - Thermochemistry -
 -------------------
 Temperature   298.150 Kelvin.  Pressure   1.00000 Atm.
 Atom     1 has atomic number  6 and mass  12.00000

 Molecular mass:   103.07590 amu.
 Principal axes and moments of inertia in atomic units:
                           1         2         3
     Eigenvalues --   386.518161245.734491364.37074
           X            0.99996   0.00774   0.00346
           Y           -0.00781   0.99972   0.02242
           Z           -0.00329  -0.02244   0.99974
 This molecule is an asymmetric top.
 Rotational symmetry number  1.
 Rotational temperatures (Kelvin)      0.22409     0.06953     0.06348
 Rotational constants (GHZ):           4.66923     1.44874     1.32276
    1 imaginary frequencies ignored.
 Zero-point vibrational energy     394976.2 (Joules/Mol)
                                   94.40159 (Kcal/Mol)
 Warning -- explicit consideration of  13 degrees of freedom as
           vibrations may cause significant error
 Vibrational temperatures:     76.58    94.88   314.60   330.62   348.89
          (Kelvin)            408.95   478.63   505.14   544.07   564.26
                              595.90   653.50   836.60  1005.97  1083.80
                             1220.57  1290.82  1330.13  1341.81  1384.48
                             1478.44  1485.17  1536.47  1573.41  1716.21
                             1865.78  1883.86  1949.75  2020.63  2036.95
                             2060.68  2125.56  2139.65  2144.59  2164.44
                             2171.33  4345.15  4352.11  4434.17  4440.63
                             4446.23  4451.99  4495.47  4561.87  4648.90
                             4719.05  5350.77

 Zero-point correction=                           0.150439 (Hartree/Particle)
 Thermal correction to Energy=                    0.159681
 Thermal correction to Enthalpy=                  0.160625
 Thermal correction to Gibbs Free Energy=         0.116129
 Sum of electronic and zero-point Energies=           -347.353733
 Sum of electronic and thermal Energies=              -347.344490
 Sum of electronic and thermal Enthalpies=            -347.343546
 Sum of electronic and thermal Free Energies=         -347.388042

                     E (Thermal)             CV                S
                      KCal/Mol        Cal/Mol-Kelvin    Cal/Mol-Kelvin
 Total                  100.201             33.624             93.651
 Electronic               0.000              0.000              1.377
 Translational            0.889              2.981             39.808
 Rotational               0.889              2.981             27.976
 Vibrational             98.424             27.662             24.489
 Vibration     1          0.596              1.976              4.694
 Vibration     2          0.597              1.971              4.271
 Vibration     3          0.646              1.813              1.970
 Vibration     4          0.652              1.796              1.881
 Vibration     5          0.659              1.775              1.785
 Vibration     6          0.683              1.703              1.508
 Vibration     7          0.715              1.610              1.247
 Vibration     8          0.728              1.573              1.161
 Vibration     9          0.748              1.517              1.047
 Vibration    10          0.760              1.487              0.992
 Vibration    11          0.778              1.439              0.912
 Vibration    12          0.813              1.352              0.783
 Vibration    13          0.938              1.071              0.483

                           ! Non-Optimized Parameters !
 Normal termination of Gaussian 16 at Wed Mar 30 18:40:15 2022.
