 Gaussian 16, Revision B.01,
 Gaussian 16:  ES64L-G16RevB.01 20-Dec-2017

 --------------------------------------------------------------------
 # opt=(calcfc,ts,noeigentest) freq b3lyp scf=(maxcyc=1000) cc-pvtz+d
 --------------------------------------------------------------------

 -----------------------------------------
 Rneopentyl-O2-Concerted-OOH-TS2-b3lyp-new
 -----------------------------------------
 Symbolic Z-matrix:
 Charge =  0 Multiplicity = 2

 SCF Done:  E(UB3LYP) =  -347.506875327     A.U. after   23 cycles
 SCF Done:  E(UB3LYP) =  -347.509462257     A.U. after   19 cycles
 SCF Done:  E(UB3LYP) =  -347.509515144     A.U. after   18 cycles
 SCF Done:  E(UB3LYP) =  -347.509517330     A.U. after   15 cycles
 SCF Done:  E(UB3LYP) =  -347.509517399     A.U. after   12 cycles
 Optimization completed.
    -- Stationary point found.
 Normal termination of Gaussian 16 at Wed Apr 27 10:45:20 2022.

 ---------------------------------------------------------------------
 #N Geom=AllCheck Guess=TCheck SCRF=Check GenChk UB3LYP/CC-pVTZ+d Freq
 ---------------------------------------------------------------------

 Structure from the checkpoint file:  "Rneopentyl-O2-Concerted-OOH-TS2-b3lyp-new.chk"
 -----------------------------------------
 Rneopentyl-O2-Concerted-OOH-TS2-b3lyp-new
 -----------------------------------------
 Charge =  0 Multiplicity = 2

                         Standard orientation:
 ---------------------------------------------------------------------
 Center     Atomic      Atomic             Coordinates (Angstroms)
 Number     Number       Type             X           Y           Z
 ---------------------------------------------------------------------
      1          6           0        0.016496   -0.000793   -0.943532
      2          1           0        0.409906    0.916804   -1.348344
      3          1           0        0.409603   -0.919094   -1.347051
      4          6           0       -1.128907    0.000008   -0.043670
      5          6           0       -0.007352    0.000148    1.028353
      6          1           0       -0.049984   -0.908539    1.624928
      7          1           0        1.192763    0.000642    0.787506
      8          1           0       -0.050297    0.908853    1.624921
      9          6           0       -1.974654   -1.266502   -0.048660
     10          1           0       -2.616557   -1.302601    0.833167
     11          1           0       -2.613607   -1.300842   -0.933170
     12          1           0       -1.350665   -2.160919   -0.048926
     13          8           0        2.618644    0.000750    0.594962
     14          8           0        2.588442   -0.000728   -0.681852
     15          6           0       -1.973893    1.267014   -0.049885
     16          1           0       -2.612792    1.300890   -0.934468
     17          1           0       -2.615820    1.304310    0.831892
     18          1           0       -1.349379    2.161083   -0.050963
 ---------------------------------------------------------------------

 SCF Done:  E(UB3LYP) =  -347.509517399     A.U. after    1 cycles

 The electronic state is 2-A.
 Alpha  occ. eigenvalues --  -19.18063 -19.17208 -10.23143 -10.21916 -10.20134
 Alpha  occ. eigenvalues --  -10.18405 -10.18404  -1.15681  -0.87147  -0.76739
 Alpha  occ. eigenvalues --   -0.73138  -0.71405  -0.67442  -0.57503  -0.49854
 Alpha  occ. eigenvalues --   -0.48048  -0.47423  -0.45654  -0.45468  -0.44348
 Alpha  occ. eigenvalues --   -0.43625  -0.40979  -0.39954  -0.39410  -0.36055
 Alpha  occ. eigenvalues --   -0.35073  -0.32282  -0.23830  -0.21309
 Alpha virt. eigenvalues --   -0.06377   0.01888   0.06112   0.06507   0.07692
 Alpha virt. eigenvalues --    0.08234   0.08747   0.10029   0.10544   0.11898
 Alpha virt. eigenvalues --    0.13025   0.13934   0.14608   0.17335   0.19378

  Beta  occ. eigenvalues --  -19.16328 -19.15235 -10.23485 -10.21943 -10.20084
  Beta  occ. eigenvalues --  -10.18410 -10.18409  -1.12053  -0.87403  -0.73471
  Beta  occ. eigenvalues --   -0.71697  -0.71418  -0.67402  -0.57594  -0.49894
  Beta  occ. eigenvalues --   -0.47728  -0.47126  -0.44958  -0.43703  -0.42264
  Beta  occ. eigenvalues --   -0.40591  -0.40059  -0.39470  -0.36738  -0.35704
  Beta  occ. eigenvalues --   -0.35040  -0.31391  -0.18264
  Beta virt. eigenvalues --   -0.07341  -0.06228   0.01873   0.06114   0.06442
  Beta virt. eigenvalues --    0.07688   0.08248   0.08644   0.09977   0.10581
  Beta virt. eigenvalues --    0.11944   0.13044   0.13954   0.14864   0.17286

 Mulliken charges and spin densities:
               1          2
     1  C   -0.207713  -0.242789
     2  H    0.159641   0.006947
     3  H    0.159628   0.006950
     4  C    0.163424  -0.004206
     5  C   -0.322116   0.036833
     6  H    0.109384  -0.007185
     7  H    0.211579  -0.024621
     8  H    0.109365  -0.007221
     9  C   -0.306126  -0.001347
    10  H    0.099579   0.000350
    11  H    0.098422  -0.002209
    12  H    0.095680  -0.000043
    13  O   -0.158117   0.571098
    14  O   -0.200178   0.670686
    15  C   -0.306155  -0.001343
    16  H    0.098431  -0.002206
    17  H    0.099577   0.000350
    18  H    0.095694  -0.000043
 Sum of Mulliken charges =  -0.00000   1.00000

 Dipole moment (field-independent basis, Debye):
    X=             -4.5881    Y=             -0.0001    Z=              0.0678  Tot=              4.5886
 Quadrupole moment (field-independent basis, Debye-Ang):
   XX=            -56.2468   YY=            -42.7073   ZZ=            -43.8432
   XY=             -0.0005   XZ=              0.1629   YZ=             -0.0012

  Exact polarizability: 128.073   0.005  62.973   5.172   0.010  73.208
 Approx polarizability: 204.489   0.019  86.372  21.790   0.039 129.416

 ******    1 imaginary frequencies (negative Signs) ******

                      1                      2                      3
                      A                      A                      A
 Frequencies --  -1149.5548                50.2724                82.9078
 Red. masses --      1.6947                 3.7118                 5.5909
 Frc consts  --      1.3195                 0.0055                 0.0226
 IR Inten    --    425.0505                 1.0571                 1.7375

                      4                      5                      6
                      A                      A                      A
 Frequencies --    154.7102               229.5117               239.6510
 Red. masses --      7.3601                 1.0550                 1.3973
 Frc consts  --      0.1038                 0.0327                 0.0473
 IR Inten    --      5.9290                 0.0084                 3.8740

                      7                      8                      9
                      A                      A                      A
 Frequencies --    291.2708               326.9980               343.8853
 Red. masses --      2.0440                 1.7598                 3.4256
 Frc consts  --      0.1022                 0.1109                 0.2387
 IR Inten    --     21.2930                 0.2055                 8.6220

                     10                     11                     12
                      A                      A                      A
 Frequencies --    395.6228               428.9280               464.9554
 Red. masses --      3.1066                 2.2116                 2.3451
 Frc consts  --      0.2865                 0.2397                 0.2987
 IR Inten    --     54.7623                 0.0116                 7.4451

                     13                     14                     15
                      A                      A                      A
 Frequencies --    469.0334               723.1280               755.4133
 Red. masses --      1.1307                 1.1015                 3.5163
 Frc consts  --      0.1466                 0.3394                 1.1822
 IR Inten    --      0.4286                 0.0838                20.9775

                     16                     17                     18
                      A                      A                      A
 Frequencies --    846.1835               864.5661               925.3238
 Red. masses --      1.6899                 1.6268                 1.5535
 Frc consts  --      0.7129                 0.7165                 0.7837
 IR Inten    --     12.9743                 7.2311                 0.2577

                     19                     20                     21
                      A                      A                      A
 Frequencies --    958.5918               966.8998               984.6299
 Red. masses --      1.3137                 1.6491                 1.1896
 Frc consts  --      0.7112                 0.9084                 0.6795
 IR Inten    --      1.0855                 0.0512                 0.0686

                     22                     23                     24
                      A                      A                      A
 Frequencies --   1011.0452              1044.2671              1070.0913
 Red. masses --      1.5934                 1.5476                 1.3582
 Frc consts  --      0.9596                 0.9943                 0.9164
 IR Inten    --      3.4238                28.0476                 0.2429

                     25                     26                     27
                      A                      A                      A
 Frequencies --   1187.7166              1269.7627              1300.7233
 Red. masses --      2.1212                 2.5058                 4.5315
 Frc consts  --      1.7630                 2.3804                 4.5171
 IR Inten    --     42.2566                 7.8884               393.8747

                     28                     29                     30
                      A                      A                      A
 Frequencies --   1342.5006              1408.0932              1421.9730
 Red. masses --      2.4360                 1.1907                 1.2426
 Frc consts  --      2.5868                 1.3909                 1.4803
 IR Inten    --     11.0653                12.3487                 3.9122

                     31                     32                     33
                      A                      A                      A
 Frequencies --   1427.7414              1432.0527              1480.5246
 Red. masses --      1.1409                 1.1509                 1.2221
 Frc consts  --      1.3703                 1.3906                 1.5783
 IR Inten    --      2.8757                 1.1935                 3.0540

                     34                     35                     36
                      A                      A                      A
 Frequencies --   1487.5065              1493.8580              1506.7016
 Red. masses --      1.0438                 1.0537                 1.0500
 Frc consts  --      1.3608                 1.3855                 1.4044
 IR Inten    --      0.0006                 4.4962                 5.6804

                     37                     38                     39
                      A                      A                      A
 Frequencies --   1514.7382              1707.5408              3022.1756
 Red. masses --      1.1396                 1.1357                 1.0343
 Frc consts  --      1.5406                 1.9509                 5.5660
 IR Inten    --     11.1357                 2.4146                23.5757

                     40                     41                     42
                      A                      A                      A
 Frequencies --   3026.7741              3047.8462              3083.3572
 Red. masses --      1.0350                 1.0501                 1.1021
 Frc consts  --      5.5865                 5.7476                 6.1732
 IR Inten    --     32.7013                11.7026                 0.3874

                     43                     44                     45
                      A                      A                      A
 Frequencies --   3087.8601              3092.2915              3094.7118
 Red. masses --      1.1014                 1.1026                 1.1019
 Frc consts  --      6.1873                 6.2120                 6.2178
 IR Inten    --     39.5097                13.3946                35.9824

                     46                     47                     48
                      A                      A                      A
 Frequencies --   3143.1901              3184.3910              3289.3227
 Red. masses --      1.1132                 1.0528                 1.1209
 Frc consts  --      6.4800                 6.2902                 7.1455
 IR Inten    --      6.4336                 7.3197                 0.1697

 - Thermochemistry -
 -------------------
 Temperature   298.150 Kelvin.  Pressure   1.00000 Atm.
 Atom     1 has atomic number  6 and mass  12.00000

 Molecular mass:   103.07590 amu.
 Principal axes and moments of inertia in atomic units:
                           1         2         3
     Eigenvalues --   383.652321452.747881484.22178
           X            1.00000  -0.00000   0.00070
           Y            0.00000   1.00000  -0.00039
           Z           -0.00070   0.00039   1.00000
 This molecule is an asymmetric top.
 Rotational symmetry number  1.
 Rotational temperatures (Kelvin)      0.22576     0.05962     0.05836
 Rotational constants (GHZ):           4.70411     1.24229     1.21595
    1 imaginary frequencies ignored.
 Zero-point vibrational energy     386879.7 (Joules/Mol)
                                   92.46647 (Kcal/Mol)
 Warning -- explicit consideration of  12 degrees of freedom as
           vibrations may cause significant error
 Vibrational temperatures:     72.33   119.29   222.59   330.22   344.80
          (Kelvin)            419.07   470.48   494.77   569.21   617.13
                              668.97   674.83  1040.42  1086.87  1217.47
                             1243.92  1331.33  1379.20  1391.15  1416.66
                             1454.67  1502.47  1539.62  1708.86  1826.91
                             1871.45  1931.56  2025.93  2045.90  2054.20
                             2060.40  2130.14  2140.19  2149.33  2167.81
                             2179.37  2456.77  4348.24  4354.85  4385.17
                             4436.26  4442.74  4449.12  4452.60  4522.35
                             4581.63  4732.60

 Zero-point correction=                           0.147355 (Hartree/Particle)
 Thermal correction to Energy=                    0.156420
 Thermal correction to Enthalpy=                  0.157364
 Thermal correction to Gibbs Free Energy=         0.112994
 Sum of electronic and zero-point Energies=           -347.362163
 Sum of electronic and thermal Energies=              -347.353097
 Sum of electronic and thermal Enthalpies=            -347.352153
 Sum of electronic and thermal Free Energies=         -347.396523

                     E (Thermal)             CV                S
                      KCal/Mol        Cal/Mol-Kelvin    Cal/Mol-Kelvin
 Total                   98.155             32.611             93.385
 Electronic               0.000              0.000              1.377
 Translational            0.889              2.981             39.808
 Rotational               0.889              2.981             28.205
 Vibrational             96.378             26.649             23.994
 Vibration     1          0.595              1.977              4.807
 Vibration     2          0.600              1.961              3.821
 Vibration     3          0.620              1.897              2.613
 Vibration     4          0.652              1.796              1.883
 Vibration     5          0.657              1.780              1.805
 Vibration     6          0.687              1.690              1.467
 Vibration     7          0.711              1.622              1.275
 Vibration     8          0.723              1.588              1.194
 Vibration     9          0.762              1.480              0.979
 Vibration    10          0.790              1.407              0.862
 Vibration    11          0.822              1.328              0.752
 Vibration    12          0.826              1.319              0.740

 Optimization completed.
    -- Stationary point found.
 Normal termination of Gaussian 16 at Wed Apr 27 10:51:46 2022.
