 Gaussian 16, Revision C.01,
 Gaussian 16:  ES64L-G16RevC.01  3-Jul-2019

 ----------------------------------------------------------------------
 #p w1u scf(verytight, maxcycles=1000) opt(calcfc, maxcyc=1000) int(gri
 d=ultrafine)
 ----------------------------------------------------------------------

 ----------
 CH2CH2_w1u
 ----------
 Symbolic Z-matrix:
 Charge =  0 Multiplicity = 1

 SCF Done:  E(RB3LYP) =  -78.6226700286     A.U. after    9 cycles
 SCF Done:  E(RB3LYP) =  -78.6231797465     A.U. after    8 cycles
 Optimization completed.
    -- Stationary point found.
 Normal termination of Gaussian 16 at Wed Feb 23 17:04:37 2022.

 -------------------------------------------------------------
 #P Geom=AllCheck Guess=TCheck SCRF=Check B3LYP/cc-pVTZ+d Freq
 -------------------------------------------------------------

 Structure from the checkpoint file:  "CH2CH2_w1u.chk"
 ----------
 CH2CH2_w1u
 ----------
 Charge =  0 Multiplicity = 1

 SCF Done:  E(RB3LYP) =  -78.6231797465     A.U. after    1 cycles

  Exact polarizability:      22.894       0.000      34.131      -0.000      -0.000      15.520
 Approx polarizability:      29.547       0.000      51.005      -0.000      -0.000      21.321

                      1                      2                      3
                     A'                     A"                     A"
 Frequencies --    835.8298               978.9608               983.5714
 Red. masses --      1.0427                 1.1607                 1.5196
 Frc consts  --      0.4292                 0.6554                 0.8661
 IR Inten    --      0.1878                93.3545                 0.0000

                      4                      5                      6
                     A"                     A'                     A'
 Frequencies --   1067.0956              1246.4512              1382.3409
 Red. masses --      1.0078                 1.5270                 1.2170
 Frc consts  --      0.6761                 1.3978                 1.3702
 IR Inten    --      0.0000                 0.0000                 0.0000

                      7                      8                      9
                     A'                     A'                     A'
 Frequencies --   1478.8937              1693.3624              3126.1146
 Red. masses --      1.1120                 3.1869                 1.0477
 Frc consts  --      1.4329                 5.3842                 6.0325
 IR Inten    --      9.2654                 0.0000                17.6651

                     10                     11                     12
                     A'                     A'                     A'
 Frequencies --   3139.9061              3195.1940              3223.6535
 Red. masses --      1.0726                 1.1142                 1.1177
 Frc consts  --      6.2302                 6.7020                 6.8433
 IR Inten    --      0.0000                 0.0000                24.4224

 - Thermochemistry -
 -------------------
 Temperature   298.150 Kelvin.  Pressure   1.00000 Atm.
 Atom     1 has atomic number  6 and mass  12.00000

 Molecular mass:    28.03130 amu.
 Principal axes and moments of inertia in atomic units:
                           1         2         3
     Eigenvalues --    12.19982  59.39061  71.59043
           X            0.00000   1.00000   0.00000
           Y            1.00000  -0.00000   0.00000
           Z           -0.00000  -0.00000   1.00000
 This molecule is an asymmetric top.
 Rotational symmetry number  1.
 Rotational temperatures (Kelvin)      7.09961     1.45838     1.20985
 Rotational constants (GHZ):         147.93180    30.38765    25.20925
 Zero-point vibrational energy     133690.9 (Joules/Mol)
                                   31.95289 (Kcal/Mol)
 Vibrational temperatures:   1202.57  1408.51  1415.14  1535.31  1793.37
          (Kelvin)           1988.88  2127.80  2436.37  4497.78  4517.62
                             4597.17  4638.12

 Zero-point correction=                           0.050920 (Hartree/Particle)
 Thermal correction to Energy=                    0.053958
 Thermal correction to Enthalpy=                  0.054903
 Thermal correction to Gibbs Free Energy=         0.028751
 Sum of electronic and zero-point Energies=            -78.572260
 Sum of electronic and thermal Energies=               -78.569221
 Sum of electronic and thermal Enthalpies=             -78.568277
 Sum of electronic and thermal Free Energies=          -78.594429

                     E (Thermal)             CV                S
                      KCal/Mol        Cal/Mol-Kelvin    Cal/Mol-Kelvin
 Total                   33.859              8.068             55.041
 Electronic               0.000              0.000              0.000
 Translational            0.889              2.981             35.927
 Rotational               0.889              2.981             18.590
 Vibrational             32.082              2.107              0.525

 Optimization completed.
    -- Stationary point found.
 Normal termination of Gaussian 16 at Wed Feb 23 17:04:45 2022.

 -----------------------------------------------------------------
 #P Geom=AllCheck Guess=TCheck SCRF=Check CCSD(T)/augh-cc-pVDZ+2df
 -----------------------------------------------------------------

 Structure from the checkpoint file:  "CH2CH2_w1u.chk"
 ----------
 CH2CH2_w1u
 ----------
 Charge =  0 Multiplicity = 1

 SCF Done:  E(RHF) =  -78.0427263602     A.U. after    9 cycles
 E2 =    -0.2820435497D+00 EUMP2 =    -0.78324769909870D+02
 CCSD(T)
 CCSD(T)= -0.78364989811D+02
 34142\CCSD=-78.3541868\CCSD(T)=-78.3649898\RMSD=2.118e-09\PG=CS [SG(C2
 Normal termination of Gaussian 16 at Wed Feb 23 17:04:48 2022.

 -----------------------------------------------------------------
 #P Geom=AllCheck Guess=TCheck SCRF=Check CCSD(T)/augh-cc-pVTZ+2df
 -----------------------------------------------------------------

 Structure from the checkpoint file:  "CH2CH2_w1u.chk"
 ----------
 CH2CH2_w1u
 ----------
 Charge =  0 Multiplicity = 1

 SCF Done:  E(RHF) =  -78.0647682466     A.U. after    8 cycles
 E2 =    -0.3382908411D+00 EUMP2 =    -0.78403059087725D+02
 CCSD(T)
 CCSD(T)= -0.78442331533D+02
 8938\CCSD=-78.427031\CCSD(T)=-78.4423315\RMSD=2.280e-09\PG=CS [SG(C2H4
 Normal termination of Gaussian 16 at Wed Feb 23 17:05:08 2022.

 --------------------------------------------------------------
 #P Geom=AllCheck Guess=TCheck SCRF=Check CCSD/augh-cc-pVQZ+2df
 --------------------------------------------------------------

 Structure from the checkpoint file:  "CH2CH2_w1u.chk"
 ----------
 CH2CH2_w1u
 ----------
 Charge =  0 Multiplicity = 1

 SCF Done:  E(RHF) =  -78.0696227940     A.U. after    7 cycles
 E2 =    -0.3574276688D+00 EUMP2 =    -0.78427050462794D+02
 Normal termination of Gaussian 16 at Wed Feb 23 17:06:42 2022.

 --------------------------------------------------------
 #P Geom=AllCheck Guess=TCheck SCRF=Check CCSD(T)/MTSmall
 --------------------------------------------------------

 Structure from the checkpoint file:  "CH2CH2_w1u.chk"
 ----------
 CH2CH2_w1u
 ----------
 Charge =  0 Multiplicity = 1

 SCF Done:  E(RHF) =  -78.0649889808     A.U. after    7 cycles
 E2 =    -0.3449763328D+00 EUMP2 =    -0.78409965313582D+02
 CCSD(T)
 CCSD(T)= -0.78447995915D+02
 081\CCSD(T)=-78.4479959\RMSD=6.367e-09\PG=CS [SG(C2H4)]\\@
 Normal termination of Gaussian 16 at Wed Feb 23 17:07:25 2022.

                         Standard orientation:
 ---------------------------------------------------------------------
 Center     Atomic      Atomic             Coordinates (Angstroms)
 Number     Number       Type             X           Y           Z
 ---------------------------------------------------------------------
      1          6           0        0.000000   -0.661966   -0.000000
      2          6           0        0.000000    0.661966    0.000000
      3          1           0       -0.920567   -1.231546    0.000000
      4          1           0        0.920567   -1.231546   -0.000000
      5          1           0       -0.920567    1.231546    0.000000
      6          1           0        0.920567    1.231546   -0.000000
 ---------------------------------------------------------------------

 SCF Done:  E(RHF) =  -78.0943084023     A.U. after    6 cycles
 E2 =    -0.4405312973D+00 EUMP2 =    -0.78534839699593D+02
 CCSD(T)
 CCSD(T)= -0.78577899894D+02

 The electronic state is 1-A'.
 Alpha  occ. eigenvalues --  -11.23215 -11.23035  -1.03553  -0.79175  -0.64230
 Alpha  occ. eigenvalues --   -0.58917  -0.50441  -0.37844
 Alpha virt. eigenvalues --    0.15371   0.15910   0.18613   0.19039   0.24137
 Alpha virt. eigenvalues --    0.36464   0.36598   0.43689   0.44008   0.47294
 Alpha virt. eigenvalues --    0.56219   0.58131   0.59293   0.63338   0.63509

 Mulliken charges:
               1
     1  C   -0.134108
     2  C   -0.134108
     3  H    0.067054
     4  H    0.067054
     5  H    0.067054
     6  H    0.067054
 Sum of Mulliken charges =  -0.00000

 Dipole moment (field-independent basis, Debye):
    X=             -0.0000    Y=              0.0000    Z=             -0.0000  Tot=              0.0000
 Quadrupole moment (field-independent basis, Debye-Ang):
   XX=            -12.3622   YY=            -12.1061   ZZ=            -15.8287
   XY=              0.0000   XZ=              0.0000   YZ=             -0.0000

 16\CCSD=-78.5613822\CCSD(T)=-78.5778999\RMSD=6.413e-09\PG=CS [SG(C2H4)
 Normal termination of Gaussian 16 at Wed Feb 23 17:08:39 2022.
