 Gaussian 16, Revision C.01,
 Gaussian 16:  ES64L-G16RevC.01  3-Jul-2019

 ----------------------------------------------------------------------
 #p w1u scf(verytight, maxcycles=1000) opt(calcfc, maxcyc=1000) int(gri
 d=ultrafine)
 ----------------------------------------------------------------------

 -------------
 CH2CH2OOH_w1u
 -------------
 Symbolic Z-matrix:
 Charge =  0 Multiplicity = 2

 SCF Done:  E(UB3LYP) =  -229.568230193     A.U. after   14 cycles
 SCF Done:  E(UB3LYP) =  -229.586955901     A.U. after   13 cycles
 SCF Done:  E(UB3LYP) =  -229.591226811     A.U. after   13 cycles
 SCF Done:  E(UB3LYP) =  -229.591951341     A.U. after   11 cycles
 SCF Done:  E(UB3LYP) =  -229.592169528     A.U. after   12 cycles
 SCF Done:  E(UB3LYP) =  -229.592231400     A.U. after   11 cycles
 SCF Done:  E(UB3LYP) =  -229.592262926     A.U. after   13 cycles
 SCF Done:  E(UB3LYP) =  -229.592269637     A.U. after   11 cycles
 SCF Done:  E(UB3LYP) =  -229.592278839     A.U. after   12 cycles
 SCF Done:  E(UB3LYP) =  -229.592280437     A.U. after    9 cycles
 SCF Done:  E(UB3LYP) =  -229.592280513     A.U. after    7 cycles
 Optimization completed.
    -- Stationary point found.
 Normal termination of Gaussian 16 at Wed Feb 23 13:55:45 2022.

 -------------------------------------------------------------
 #P Geom=AllCheck Guess=TCheck SCRF=Check B3LYP/cc-pVTZ+d Freq
 -------------------------------------------------------------

 Structure from the checkpoint file:  "CH2CH2OOH_w1u.chk"
 -------------
 CH2CH2OOH_w1u
 -------------
 Charge =  0 Multiplicity = 2

 SCF Done:  E(UB3LYP) =  -229.592280513     A.U. after    1 cycles

  Exact polarizability:      47.130       1.580      30.936       2.322      -1.425      27.717
 Approx polarizability:      58.779       3.474      43.222       3.140      -1.533      38.320

                      1                      2                      3
                      A                      A                      A
 Frequencies --    110.0437               129.5381               203.3557
 Red. masses --      1.4712                 1.8571                 1.1362
 Frc consts  --      0.0105                 0.0184                 0.0277
 IR Inten    --      8.1036                 0.6396               108.0308

                      4                      5                      6
                      A                      A                      A
 Frequencies --    300.0234               469.0284               512.6005
 Red. masses --      2.8727                 2.2893                 1.9555
 Frc consts  --      0.1524                 0.2967                 0.3027
 IR Inten    --      3.1485                23.8857                27.0367

                      7                      8                      9
                      A                      A                      A
 Frequencies --    819.4553               933.8400               986.9561
 Red. masses --      1.4374                 6.6890                 2.8573
 Frc consts  --      0.5687                 3.4368                 1.6398
 IR Inten    --      4.5314                19.0267                17.5386

                     10                     11                     12
                      A                      A                      A
 Frequencies --   1071.2743              1143.1600              1225.4651
 Red. masses --      3.0197                 1.9331                 1.1185
 Frc consts  --      2.0418                 1.4884                 0.9897
 IR Inten    --     12.9824                 4.0412                 2.7153

                     13                     14                     15
                      A                      A                      A
 Frequencies --   1359.2805              1383.6467              1454.7737
 Red. masses --      1.1575                 1.2612                 1.2151
 Frc consts  --      1.2600                 1.4226                 1.5152
 IR Inten    --     62.0000                 0.5787                 2.1960

                     16                     17                     18
                      A                      A                      A
 Frequencies --   1496.5921              2921.5501              3022.7943
 Red. masses --      1.0758                 1.0696                 1.0869
 Frc consts  --      1.4197                 5.3790                 5.8515
 IR Inten    --      7.9052                37.1150                34.4051

                     19                     20                     21
                      A                      A                      A
 Frequencies --   3156.2382              3264.6239              3758.8937
 Red. masses --      1.0503                 1.1196                 1.0685
 Frc consts  --      6.1645                 7.0307                 8.8953
 IR Inten    --      4.8504                 4.4448                37.1439

 - Thermochemistry -
 -------------------
 Temperature   298.150 Kelvin.  Pressure   1.00000 Atm.
 Atom     1 has atomic number  6 and mass  12.00000

 Molecular mass:    61.02895 amu.
 Principal axes and moments of inertia in atomic units:
                           1         2         3
     Eigenvalues --    53.06211 413.90786 445.86298
           X            0.99989  -0.00154   0.01442
           Y            0.00282   0.99598  -0.08954
           Z           -0.01422   0.08957   0.99588
 This molecule is an asymmetric top.
 Rotational symmetry number  1.
 Rotational temperatures (Kelvin)      1.63231     0.20926     0.19426
 Rotational constants (GHZ):          34.01186     4.36025     4.04775
 Zero-point vibrational energy     177783.8 (Joules/Mol)
                                   42.49135 (Kcal/Mol)
 Warning -- explicit consideration of   6 degrees of freedom as
           vibrations may cause significant error
 Vibrational temperatures:    158.33   186.38   292.58   431.67   674.83
          (Kelvin)            737.52  1179.01  1343.59  1420.01  1541.32
                             1644.75  1763.17  1955.70  1990.76  2093.09
                             2153.26  4203.46  4349.13  4541.12  4697.07
                             5408.21

 Zero-point correction=                           0.067714 (Hartree/Particle)
 Thermal correction to Energy=                    0.073632
 Thermal correction to Enthalpy=                  0.074576
 Thermal correction to Gibbs Free Energy=         0.038861
 Sum of electronic and zero-point Energies=           -229.524566
 Sum of electronic and thermal Energies=              -229.518649
 Sum of electronic and thermal Enthalpies=            -229.517705
 Sum of electronic and thermal Free Energies=         -229.553419

                     E (Thermal)             CV                S
                      KCal/Mol        Cal/Mol-Kelvin    Cal/Mol-Kelvin
 Total                   46.205             18.479             75.167
 Electronic               0.000              0.000              1.377
 Translational            0.889              2.981             38.246
 Rotational               0.889              2.981             23.797
 Vibrational             44.427             12.518             11.747
 Vibration     1          0.606              1.941              3.268
 Vibration     2          0.612              1.924              2.953
 Vibration     3          0.639              1.835              2.103
 Vibration     4          0.693              1.674              1.417
 Vibration     5          0.826              1.319              0.740
 Vibration     6          0.868              1.222              0.627

 Optimization completed.
    -- Stationary point found.
 Normal termination of Gaussian 16 at Wed Feb 23 13:56:31 2022.

 -----------------------------------------------------------------
 #P Geom=AllCheck Guess=TCheck SCRF=Check CCSD(T)/augh-cc-pVDZ+2df
 -----------------------------------------------------------------

 Structure from the checkpoint file:  "CH2CH2OOH_w1u.chk"
 -------------
 CH2CH2OOH_w1u
 -------------
 Charge =  0 Multiplicity = 2

 SCF Done:  E(UHF) =  -228.240472443     A.U. after   20 cycles
 E2 =    -0.6699864630D+00 EUMP2 =    -0.22891045890553D+03
 CCSD(T)
 CCSD(T)= -0.22897257600D+03
 28.9493874\CCSD(T)=-228.972576\S2=0.76262\S2-1=0.75336\S2A=0.750103\RM
 Normal termination of Gaussian 16 at Wed Feb 23 13:58:03 2022.

 -----------------------------------------------------------------
 #P Geom=AllCheck Guess=TCheck SCRF=Check CCSD(T)/augh-cc-pVTZ+2df
 -----------------------------------------------------------------

 Structure from the checkpoint file:  "CH2CH2OOH_w1u.chk"
 -------------
 CH2CH2OOH_w1u
 -------------
 Charge =  0 Multiplicity = 2

 SCF Done:  E(UHF) =  -228.297831092     A.U. after   17 cycles
 E2 =    -0.8153925072D+00 EUMP2 =    -0.22911322359945D+03
 CCSD(T)
 CCSD(T)= -0.22917608468D+03
 9.1416794\CCSD(T)=-229.1760847\S2=0.763096\S2-1=0.753419\S2A=0.750111\
 Normal termination of Gaussian 16 at Wed Feb 23 14:14:16 2022.

 --------------------------------------------------------------
 #P Geom=AllCheck Guess=TCheck SCRF=Check CCSD/augh-cc-pVQZ+2df
 --------------------------------------------------------------

 Structure from the checkpoint file:  "CH2CH2OOH_w1u.chk"
 -------------
 CH2CH2OOH_w1u
 -------------
 Charge =  0 Multiplicity = 2

 SCF Done:  E(UHF) =  -228.312123576     A.U. after    9 cycles
 E2 =    -0.8663530779D+00 EUMP2 =    -0.22917847665409D+03
 Normal termination of Gaussian 16 at Wed Feb 23 15:13:07 2022.

 --------------------------------------------------------
 #P Geom=AllCheck Guess=TCheck SCRF=Check CCSD(T)/MTSmall
 --------------------------------------------------------

 Structure from the checkpoint file:  "CH2CH2OOH_w1u.chk"
 -------------
 CH2CH2OOH_w1u
 -------------
 Charge =  0 Multiplicity = 2

 SCF Done:  E(UHF) =  -228.295775158     A.U. after   15 cycles
 E2 =    -0.8293591412D+00 EUMP2 =    -0.22912513429873D+03
 CCSD(T)
 CCSD(T)= -0.22918419135D+03
 3229\PMP3-0=-229.144255\MP4SDQ=-229.1509545\CCSD=-229.1498592\CCSD(T)=
 Normal termination of Gaussian 16 at Wed Feb 23 15:45:50 2022.

                         Standard orientation:
 ---------------------------------------------------------------------
 Center     Atomic      Atomic             Coordinates (Angstroms)
 Number     Number       Type             X           Y           Z
 ---------------------------------------------------------------------
      1          6           0       -1.852200   -0.166980    0.027775
      2          6           0       -0.531369    0.493419    0.058741
      3          1           0       -2.708700    0.334573   -0.394654
      4          1           0       -1.980039   -1.139938    0.478434
      5          8           0        0.457468   -0.513383   -0.173682
      6          1           0       -0.450756    1.278182   -0.699368
      7          1           0       -0.333842    0.959118    1.037207
      8          8           0        1.752335    0.130903   -0.036404
      9          1           0        2.096334   -0.330729    0.739984
 ---------------------------------------------------------------------

 SCF Done:  E(UHF) =  -228.428589017     A.U. after   10 cycles
 E2 =    -0.1032104216D+01 EUMP2 =    -0.22946069323256D+03
 CCSD(T)
 CCSD(T)= -0.22952799571D+03

 The electronic state is 2-A.
 Alpha  occ. eigenvalues --  -20.63413 -20.63236 -11.29017 -11.24626  -1.46946
 Alpha  occ. eigenvalues --   -1.22954  -1.01970  -0.84356  -0.71884  -0.66108
 Alpha  occ. eigenvalues --   -0.65613  -0.61202  -0.55801  -0.53146  -0.49087
 Alpha  occ. eigenvalues --   -0.45840  -0.37166
 Alpha virt. eigenvalues --    0.14458   0.15759   0.18588   0.20054   0.22983
 Alpha virt. eigenvalues --    0.25289   0.31181   0.34070   0.39566   0.43917
 Alpha virt. eigenvalues --    0.45557   0.48581   0.54432   0.56691   0.58742

  Beta  occ. eigenvalues --  -20.63326 -20.63212 -11.29337 -11.22275  -1.46782
  Beta  occ. eigenvalues --   -1.22595  -0.97342  -0.80301  -0.71676  -0.65070
  Beta  occ. eigenvalues --   -0.64835  -0.60186  -0.54938  -0.51967  -0.48929
  Beta  occ. eigenvalues --   -0.44978
  Beta virt. eigenvalues --    0.11542   0.14591   0.16221   0.19147   0.20385
  Beta virt. eigenvalues --    0.23216   0.26230   0.31463   0.34329   0.39909
  Beta virt. eigenvalues --    0.46849   0.51606   0.53872   0.55381   0.57209

 Mulliken charges and spin densities:
               1          2
     1  C   -0.141459   1.219250
     2  C    0.248089  -0.119122
     3  H    0.065487  -0.091051
     4  H    0.065848  -0.086319
     5  O   -0.248421   0.007968
     6  H    0.022654   0.012298
     7  H    0.000683   0.049502
     8  O   -0.257269   0.007748
     9  H    0.244387  -0.000274
 Sum of Mulliken charges =  -0.00000   1.00000

 Dipole moment (field-independent basis, Debye):
    X=             -0.8174    Y=              0.4344    Z=              1.6572  Tot=              1.8982
 Quadrupole moment (field-independent basis, Debye-Ang):
   XX=            -21.9247   YY=            -24.4345   ZZ=            -23.8214
   XY=             -1.6824   XZ=              3.5903   YZ=             -1.5155

 91802\CCSD(T)=-229.5279957\S2=0.762988\S2-1=0.753373\S2A=0.750108\RMSD
 Normal termination of Gaussian 16 at Wed Feb 23 16:41:39 2022.
