 Gaussian 16, Revision C.01,
 Gaussian 16:  ES64L-G16RevC.01  3-Jul-2019

 ----------------------------------------------------------------------
 #p w1u scf(verytight, maxcycles=1000) opt(calcfc, maxcyc=1000) int(gri
 d=ultrafine)
 ----------------------------------------------------------------------

 -----------
 CH2OCH2_w1u
 -----------
 Symbolic Z-matrix:
 Charge =  0 Multiplicity = 1

 SCF Done:  E(RB3LYP) =  -153.838731712     A.U. after   11 cycles
 SCF Done:  E(RB3LYP) =  -153.848394171     A.U. after   11 cycles
 SCF Done:  E(RB3LYP) =  -153.848847632     A.U. after    9 cycles
 Optimization completed.
    -- Stationary point found.
 Normal termination of Gaussian 16 at Wed Feb 23 16:47:28 2022.

 -------------------------------------------------------------
 #P Geom=AllCheck Guess=TCheck SCRF=Check B3LYP/cc-pVTZ+d Freq
 -------------------------------------------------------------

 Structure from the checkpoint file:  "CH2OCH2_w1u.chk"
 -----------
 CH2OCH2_w1u
 -----------
 Charge =  0 Multiplicity = 1

 SCF Done:  E(RB3LYP) =  -153.848847632     A.U. after    1 cycles

  Exact polarizability:      31.167      -0.000      22.662      -0.000       0.000      24.571
 Approx polarizability:      41.292      -0.000      34.980      -0.000       0.000      32.054

                      1                      2                      3
                      A                      A                      A
 Frequencies --    820.9816               846.5212               892.4287
 Red. masses --      1.0238                 9.8421                 3.8278
 Frc consts  --      0.4066                 4.1554                 1.7962
 IR Inten    --      0.0081                11.6609                65.2188

                      4                      5                      6
                      A                      A                      A
 Frequencies --   1047.1821              1150.3912              1156.3546
 Red. masses --      1.0155                 1.4418                 1.2980
 Frc consts  --      0.6561                 1.1242                 1.0226
 IR Inten    --      0.0000                 0.0042                 1.4288

                      7                      8                      9
                      A                      A                      A
 Frequencies --   1171.7311              1177.3731              1301.7028
 Red. masses --      1.2694                 1.4177                 2.6331
 Frc consts  --      1.0269                 1.1579                 2.6287
 IR Inten    --      3.4454                 0.0000                14.5118

                     10                     11                     12
                      A                      A                      A
 Frequencies --   1507.0326              1541.1250              3078.8490
 Red. masses --      1.0740                 1.3066                 1.0435
 Frc consts  --      1.4371                 1.8284                 5.8279
 IR Inten    --      0.0175                 2.6200                42.8194

                     13                     14                     15
                      A                      A                      A
 Frequencies --   3085.5370              3157.5797              3173.3447
 Red. masses --      1.0560                 1.1212                 1.1214
 Frc consts  --      5.9236                 6.5866                 6.6532
 IR Inten    --     15.2684                 0.0000                50.5652

 - Thermochemistry -
 -------------------
 Temperature   298.150 Kelvin.  Pressure   1.00000 Atm.
 Atom     1 has atomic number  6 and mass  12.00000

 Molecular mass:    44.02621 amu.
 Principal axes and moments of inertia in atomic units:
                           1         2         3
     Eigenvalues --    70.19884  81.06247 126.98647
           X            1.00000   0.00000  -0.00000
           Y           -0.00000   1.00000   0.00000
           Z            0.00000  -0.00000   1.00000
 This molecule is an asymmetric top.
 Rotational symmetry number  1.
 Rotational temperatures (Kelvin)      1.23384     1.06848     0.68207
 Rotational constants (GHZ):          25.70899    22.26358    14.21207
 Zero-point vibrational energy     150180.0 (Joules/Mol)
                                   35.89388 (Kcal/Mol)
 Vibrational temperatures:   1181.21  1217.96  1284.01  1506.66  1655.16
          (Kelvin)           1663.74  1685.86  1693.98  1872.86  2168.28
                             2217.34  4429.78  4439.40  4543.05  4565.74

 Zero-point correction=                           0.057201 (Hartree/Particle)
 Thermal correction to Energy=                    0.060355
 Thermal correction to Enthalpy=                  0.061300
 Thermal correction to Gibbs Free Energy=         0.033122
 Sum of electronic and zero-point Energies=           -153.791647
 Sum of electronic and thermal Energies=              -153.788492
 Sum of electronic and thermal Enthalpies=            -153.787548
 Sum of electronic and thermal Free Energies=         -153.815726

                     E (Thermal)             CV                S
                      KCal/Mol        Cal/Mol-Kelvin    Cal/Mol-Kelvin
 Total                   37.874              9.199             59.305
 Electronic               0.000              0.000              0.000
 Translational            0.889              2.981             37.273
 Rotational               0.889              2.981             21.207
 Vibrational             36.096              3.237              0.825

 Optimization completed.
    -- Stationary point found.
 Normal termination of Gaussian 16 at Wed Feb 23 16:47:46 2022.

 -----------------------------------------------------------------
 #P Geom=AllCheck Guess=TCheck SCRF=Check CCSD(T)/augh-cc-pVDZ+2df
 -----------------------------------------------------------------

 Structure from the checkpoint file:  "CH2OCH2_w1u.chk"
 -----------
 CH2OCH2_w1u
 -----------
 Charge =  0 Multiplicity = 1

 SCF Done:  E(RHF) =  -152.888029296     A.U. after   11 cycles
 E2 =    -0.4825482483D+00 EUMP2 =    -0.15337057754399D+03
 CCSD(T)
 CCSD(T)= -0.15341350587D+03
 62362\CCSD(T)=-153.4135059\RMSD=2.030e-09\PG=C01 [X(C2H4O1)]\\@
 Normal termination of Gaussian 16 at Wed Feb 23 16:47:55 2022.

 -----------------------------------------------------------------
 #P Geom=AllCheck Guess=TCheck SCRF=Check CCSD(T)/augh-cc-pVTZ+2df
 -----------------------------------------------------------------

 Structure from the checkpoint file:  "CH2OCH2_w1u.chk"
 -----------
 CH2OCH2_w1u
 -----------
 Charge =  0 Multiplicity = 1

 SCF Done:  E(RHF) =  -152.928404089     A.U. after    9 cycles
 E2 =    -0.5839659266D+00 EUMP2 =    -0.15351237001580D+03
 CCSD(T)
 CCSD(T)= -0.15355505336D+03
 7998\CCSD(T)=-153.5550534\RMSD=9.492e-09\PG=C01 [X(C2H4O1)]\\@
 Normal termination of Gaussian 16 at Wed Feb 23 16:49:30 2022.

 --------------------------------------------------------------
 #P Geom=AllCheck Guess=TCheck SCRF=Check CCSD/augh-cc-pVQZ+2df
 --------------------------------------------------------------

 Structure from the checkpoint file:  "CH2OCH2_w1u.chk"
 -----------
 CH2OCH2_w1u
 -----------
 Charge =  0 Multiplicity = 1

 SCF Done:  E(RHF) =  -152.937931330     A.U. after    8 cycles
 E2 =    -0.6192598475D+00 EUMP2 =    -0.15355719117713D+03
 Normal termination of Gaussian 16 at Wed Feb 23 16:56:11 2022.

 --------------------------------------------------------
 #P Geom=AllCheck Guess=TCheck SCRF=Check CCSD(T)/MTSmall
 --------------------------------------------------------

 Structure from the checkpoint file:  "CH2OCH2_w1u.chk"
 -----------
 CH2OCH2_w1u
 -----------
 Charge =  0 Multiplicity = 1

 SCF Done:  E(RHF) =  -152.927116161     A.U. after    9 cycles
 E2 =    -0.5942447254D+00 EUMP2 =    -0.15352136088625D+03
 CCSD(T)
 CCSD(T)= -0.15356175735D+03
 6\MP4DQ=-153.5317996\MP4SDQ=-153.5376761\CCSD=-153.5362578\CCSD(T)=-15
 Normal termination of Gaussian 16 at Wed Feb 23 16:59:18 2022.

                         Standard orientation:
 ---------------------------------------------------------------------
 Center     Atomic      Atomic             Coordinates (Angstroms)
 Number     Number       Type             X           Y           Z
 ---------------------------------------------------------------------
      1          6           0        0.731430   -0.371702    0.000000
      2          6           0       -0.731430   -0.371702   -0.000000
      3          8           0       -0.000000    0.853606   -0.000000
      4          1           0        1.266004   -0.592106   -0.918210
      5          1           0        1.266004   -0.592106    0.918209
      6          1           0       -1.266003   -0.592106    0.918210
      7          1           0       -1.266004   -0.592106   -0.918209
 ---------------------------------------------------------------------

 SCF Done:  E(RHF) =  -153.008107587     A.U. after    8 cycles
 E2 =    -0.7434453540D+00 EUMP2 =    -0.15375155294058D+03
 CCSD(T)
 CCSD(T)= -0.15379862400D+03

 The electronic state is 1-A.
 Alpha  occ. eigenvalues --  -20.58191 -11.28819 -11.28739  -1.41132  -0.93364
 Alpha  occ. eigenvalues --   -0.86178  -0.70420  -0.66041  -0.54714  -0.54215
 Alpha  occ. eigenvalues --   -0.45052  -0.45024
 Alpha virt. eigenvalues --    0.14909   0.17528   0.18538   0.23113   0.23467
 Alpha virt. eigenvalues --    0.25247   0.34899   0.35368   0.46051   0.48817
 Alpha virt. eigenvalues --    0.52096   0.56630   0.58800   0.59077   0.60845

 Mulliken charges:
               1
     1  C    0.134408
     2  C    0.134408
     3  O   -0.419246
     4  H    0.037607
     5  H    0.037608
     6  H    0.037607
     7  H    0.037607
 Sum of Mulliken charges =  -0.00000

 Dipole moment (field-independent basis, Debye):
    X=              0.0000    Y=             -2.2062    Z=              0.0000  Tot=              2.2062
 Quadrupole moment (field-independent basis, Debye-Ang):
   XX=            -16.2432   YY=            -20.8388   ZZ=            -17.2140
   XY=              0.0000   XZ=              0.0000   YZ=              0.0000

 88\CCSD(T)=-153.798624\RMSD=8.638e-09\PG=C01 [X(C2H4O1)]\\@
 Normal termination of Gaussian 16 at Wed Feb 23 17:04:26 2022.
