 Gaussian 16, Revision C.01,
 Gaussian 16:  ES64L-G16RevC.01  3-Jul-2019

 ----------------------------------------------------------------------
 #p w1u scf(verytight, maxcycles=1000) opt(calcfc, maxcyc=1000) int(gri
 d=ultrafine)
 ----------------------------------------------------------------------

 ----------
 CH3CH2_w1u
 ----------
 Symbolic Z-matrix:
 Charge =  0 Multiplicity = 2

 SCF Done:  E(UB3LYP) =  -79.1790747141     A.U. after   12 cycles
 SCF Done:  E(UB3LYP) =  -79.1888405533     A.U. after   12 cycles
 SCF Done:  E(UB3LYP) =  -79.1914573434     A.U. after   11 cycles
 SCF Done:  E(UB3LYP) =  -79.1921578837     A.U. after   10 cycles
 SCF Done:  E(UB3LYP) =  -79.1922297086     A.U. after    9 cycles
 SCF Done:  E(UB3LYP) =  -79.1922326599     A.U. after    6 cycles
 Optimization completed.
    -- Stationary point found.
 Normal termination of Gaussian 16 at Tue Feb 22 15:09:26 2022.

 -------------------------------------------------------------
 #P Geom=AllCheck Guess=TCheck SCRF=Check B3LYP/cc-pVTZ+d Freq
 -------------------------------------------------------------

 Structure from the checkpoint file:  "CH3CH2_w1u.chk"
 ----------
 CH3CH2_w1u
 ----------
 Charge =  0 Multiplicity = 2

 SCF Done:  E(UB3LYP) =  -79.1922326599     A.U. after    1 cycles

  Exact polarizability:      29.504       0.000      24.796       0.327       0.000      21.532
 Approx polarizability:      35.283       0.000      32.532       0.572       0.000      28.707

                      1                      2                      3
                      A                      A                      A
 Frequencies --    104.8073               486.2223               813.8449
 Red. masses --      1.0081                 1.2157                 1.0505
 Frc consts  --      0.0065                 0.1693                 0.4099
 IR Inten    --      0.0027                51.6733                 1.8124

                      4                      5                      6
                      A                      A                      A
 Frequencies --    982.2743              1061.8581              1195.8772
 Red. masses --      1.3314                 3.3538                 1.4738
 Frc consts  --      0.7569                 2.2280                 1.2419
 IR Inten    --      0.5339                 0.0731                 2.3104

                      7                      8                      9
                      A                      A                      A
 Frequencies --   1402.1395              1467.3672              1481.5538
 Red. masses --      1.1846                 1.1036                 1.0343
 Frc consts  --      1.3722                 1.4000                 1.3376
 IR Inten    --      1.9148                 2.3290                 5.0600

                     10                     11                     12
                      A                      A                      A
 Frequencies --   1482.2557              2943.0673              3034.7866
 Red. masses --      1.1272                 1.0625                 1.0661
 Frc consts  --      1.4591                 5.4221                 5.7848
 IR Inten    --      2.8998                27.5085                23.7576

                     13                     14                     15
                      A                      A                      A
 Frequencies --   3077.3432              3142.6027              3240.6016
 Red. masses --      1.1019                 1.0506                 1.1187
 Frc consts  --      6.1483                 6.1129                 6.9216
 IR Inten    --     21.8251                15.5744                15.2727

 - Thermochemistry -
 -------------------
 Temperature   298.150 Kelvin.  Pressure   1.00000 Atm.
 Atom     1 has atomic number  6 and mass  12.00000

 Molecular mass:    29.03913 amu.
 Principal axes and moments of inertia in atomic units:
                           1         2         3
     Eigenvalues --    17.31146  79.01705  85.26966
           X            0.99999   0.00000  -0.00379
           Y           -0.00000   1.00000  -0.00000
           Z            0.00379   0.00000   0.99999
 This molecule is an asymmetric top.
 Rotational symmetry number  1.
 Rotational temperatures (Kelvin)      5.00327     1.09614     1.01576
 Rotational constants (GHZ):         104.25121    22.83990    21.16510
 Zero-point vibrational energy     155015.7 (Joules/Mol)
                                   37.04964 (Kcal/Mol)
 Warning -- explicit consideration of   2 degrees of freedom as
           vibrations may cause significant error
 Vibrational temperatures:    150.79   699.57  1170.94  1413.27  1527.78
          (Kelvin)           1720.60  2017.37  2111.21  2131.63  2132.64
                             4234.42  4366.38  4427.61  4521.50  4662.50

 Zero-point correction=                           0.059042 (Hartree/Particle)
 Thermal correction to Energy=                    0.063018
 Thermal correction to Enthalpy=                  0.063963
 Thermal correction to Gibbs Free Energy=         0.034823
 Sum of electronic and zero-point Energies=            -79.133190
 Sum of electronic and thermal Energies=               -79.129214
 Sum of electronic and thermal Enthalpies=             -79.128270
 Sum of electronic and thermal Free Energies=          -79.157410

                     E (Thermal)             CV                S
                      KCal/Mol        Cal/Mol-Kelvin    Cal/Mol-Kelvin
 Total                   39.545             11.084             61.330
 Electronic               0.000              0.000              1.377
 Translational            0.889              2.981             36.032
 Rotational               0.889              2.981             19.395
 Vibrational             37.767              5.122              4.525
 Vibration     1          0.605              1.945              3.363
 Vibration     2          0.842              1.281              0.693

 Optimization completed.
    -- Stationary point found.
 Normal termination of Gaussian 16 at Tue Feb 22 15:10:17 2022.

 -----------------------------------------------------------------
 #P Geom=AllCheck Guess=TCheck SCRF=Check CCSD(T)/augh-cc-pVDZ+2df
 -----------------------------------------------------------------

 Structure from the checkpoint file:  "CH3CH2_w1u.chk"
 ----------
 CH3CH2_w1u
 ----------
 Charge =  0 Multiplicity = 2

 SCF Done:  E(UHF) =  -78.6059882672     A.U. after   13 cycles
 E2 =    -0.2760473599D+00 EUMP2 =    -0.78882035627184D+02
 CCSD(T)
 CCSD(T)= -0.78927203637D+02
 PMP3-0=-78.9150578\MP4SDQ=-78.9179354\CCSD=-78.9188784\CCSD(T)=-78.927
 Normal termination of Gaussian 16 at Tue Feb 22 15:10:24 2022.

 -----------------------------------------------------------------
 #P Geom=AllCheck Guess=TCheck SCRF=Check CCSD(T)/augh-cc-pVTZ+2df
 -----------------------------------------------------------------

 Structure from the checkpoint file:  "CH3CH2_w1u.chk"
 ----------
 CH3CH2_w1u
 ----------
 Charge =  0 Multiplicity = 2

 SCF Done:  E(UHF) =  -78.6283830398     A.U. after   11 cycles
 E2 =    -0.3338385429D+00 EUMP2 =    -0.78962221582780D+02
 CCSD(T)
 CCSD(T)= -0.79006371478D+02
 3-0=-78.9922695\MP4SDQ=-78.9934657\CCSD=-78.9939321\CCSD(T)=-79.006371
 Normal termination of Gaussian 16 at Tue Feb 22 15:12:08 2022.

 --------------------------------------------------------------
 #P Geom=AllCheck Guess=TCheck SCRF=Check CCSD/augh-cc-pVQZ+2df
 --------------------------------------------------------------

 Structure from the checkpoint file:  "CH3CH2_w1u.chk"
 ----------
 CH3CH2_w1u
 ----------
 Charge =  0 Multiplicity = 2

 SCF Done:  E(UHF) =  -78.6332627856     A.U. after    8 cycles
 E2 =    -0.3529924119D+00 EUMP2 =    -0.78986255197450D+02
 Normal termination of Gaussian 16 at Tue Feb 22 15:26:23 2022.

 --------------------------------------------------------
 #P Geom=AllCheck Guess=TCheck SCRF=Check CCSD(T)/MTSmall
 --------------------------------------------------------

 Structure from the checkpoint file:  "CH3CH2_w1u.chk"
 ----------
 CH3CH2_w1u
 ----------
 Charge =  0 Multiplicity = 2

 SCF Done:  E(UHF) =  -78.6287046611     A.U. after   10 cycles
 E2 =    -0.3400975804D+00 EUMP2 =    -0.78968802241466D+02
 CCSD(T)
 CCSD(T)= -0.79011419649D+02
 MP4SDQ=-78.9984017\CCSD=-78.9987655\CCSD(T)=-79.0114196\S2=0.763332\S2
 Normal termination of Gaussian 16 at Tue Feb 22 15:29:48 2022.

                         Standard orientation:
 ---------------------------------------------------------------------
 Center     Atomic      Atomic             Coordinates (Angstroms)
 Number     Number       Type             X           Y           Z
 ---------------------------------------------------------------------
      1          6           0        0.691636   -0.000000   -0.002049
      2          6           0       -0.792081    0.000000   -0.017585
      3          1           0        1.103759   -0.884476   -0.491892
      4          1           0        1.091851    0.000004    1.022920
      5          1           0        1.103759    0.884472   -0.491898
      6          1           0       -1.348350   -0.924419    0.039336
      7          1           0       -1.348349    0.924419    0.039336
 ---------------------------------------------------------------------

 SCF Done:  E(UHF) =  -78.6579656703     A.U. after    8 cycles
 E2 =    -0.4355726594D+00 EUMP2 =    -0.79093538329643D+02
 CCSD(T)
 CCSD(T)= -0.79141115803D+02

 The electronic state is 2-A.
 Alpha  occ. eigenvalues --  -11.23083 -11.22072  -1.03057  -0.83995  -0.61779
 Alpha  occ. eigenvalues --   -0.57539  -0.54309  -0.50364  -0.34886
 Alpha virt. eigenvalues --    0.14721   0.17908   0.19876   0.22084   0.24435
 Alpha virt. eigenvalues --    0.33524   0.37397   0.38657   0.40723   0.45711
 Alpha virt. eigenvalues --    0.48652   0.50769   0.60307   0.62090   0.62933

  Beta  occ. eigenvalues --  -11.22392 -11.20720  -0.99419  -0.78648  -0.60757
  Beta  occ. eigenvalues --   -0.54317  -0.53099  -0.49800
  Beta virt. eigenvalues --    0.13810   0.14977   0.18796   0.20094   0.22322
  Beta virt. eigenvalues --    0.24675   0.33900   0.37682   0.38860   0.41497
  Beta virt. eigenvalues --    0.49018   0.55283   0.56328   0.60741   0.63467

 Mulliken charges and spin densities:
               1          2
     1  C   -0.070067  -0.140376
     2  C   -0.138187   1.220407
     3  H    0.034653   0.016735
     4  H    0.031400   0.062981
     5  H    0.034653   0.016735
     6  H    0.053774  -0.088241
     7  H    0.053774  -0.088241
 Sum of Mulliken charges =  -0.00000   1.00000

 Dipole moment (field-independent basis, Debye):
    X=              0.1609    Y=              0.0000    Z=              0.0930  Tot=              0.1858
 Quadrupole moment (field-independent basis, Debye-Ang):
   XX=            -14.4564   YY=            -13.6547   ZZ=            -15.2423
   XY=              0.0000   XZ=             -0.1487   YZ=             -0.0000

 3-0=-79.1259313\MP4SDQ=-79.1274801\CCSD=-79.1276584\CCSD(T)=-79.141115
 Normal termination of Gaussian 16 at Tue Feb 22 15:35:11 2022.
