 Gaussian 16, Revision C.01,
 Gaussian 16:  ES64L-G16RevC.01  3-Jul-2019

 ----------------------------------------------------------------------
 #p w1u scf(verytight, maxcycles=1000) opt(calcfc, maxcyc=1000) int(gri
 d=ultrafine)
 ----------------------------------------------------------------------

 ------------
 CH3CH2OO_w1u
 ------------
 Symbolic Z-matrix:
 Charge =  0 Multiplicity = 2

 SCF Done:  E(UB3LYP) =  -229.621153260     A.U. after   15 cycles
 SCF Done:  E(UB3LYP) =  -229.627037724     A.U. after   13 cycles
 SCF Done:  E(UB3LYP) =  -229.627175091     A.U. after   11 cycles
 SCF Done:  E(UB3LYP) =  -229.627179548     A.U. after    8 cycles
 Optimization completed.
    -- Stationary point found.
 Normal termination of Gaussian 16 at Tue Feb 22 12:12:35 2022.

 -------------------------------------------------------------
 #P Geom=AllCheck Guess=TCheck SCRF=Check B3LYP/cc-pVTZ+d Freq
 -------------------------------------------------------------

 Structure from the checkpoint file:  "CH3CH2OO_w1u.chk"
 ------------
 CH3CH2OO_w1u
 ------------
 Charge =  0 Multiplicity = 2

 SCF Done:  E(UB3LYP) =  -229.627179548     A.U. after    1 cycles

  Exact polarizability:      45.548      -1.352      30.342       0.000      -0.000      28.094
 Approx polarizability:      59.117      -2.841      42.435       0.000      -0.000      38.581

                      1                      2                      3
                      A                      A                      A
 Frequencies --     74.2528               223.5669               307.1919
 Red. masses --      5.4225                 1.1235                 3.2794
 Frc consts  --      0.0176                 0.0331                 0.1823
 IR Inten    --      0.3945                 0.3651                 1.4089

                      4                      5                      6
                      A                      A                      A
 Frequencies --    502.3475               805.6244               841.9603
 Red. masses --      5.4061                 1.0883                 2.5131
 Frc consts  --      0.8038                 0.4162                 1.0496
 IR Inten    --     10.0450                 1.3149                 3.7439

                      7                      8                      9
                      A                      A                      A
 Frequencies --   1015.2529              1133.9237              1150.2037
 Red. masses --      2.8608                 2.3509                 1.4329
 Frc consts  --      1.7374                 1.7810                 1.1169
 IR Inten    --     17.2176                 4.7014                 4.4013

                     10                     11                     12
                      A                      A                      A
 Frequencies --   1193.6478              1278.2306              1381.0735
 Red. masses --     10.8796                 1.1434                 1.2767
 Frc consts  --      9.1331                 1.1007                 1.4347
 IR Inten    --     15.5408                 0.2969                13.5460

                     13                     14                     15
                      A                      A                      A
 Frequencies --   1420.0700              1486.8332              1496.2760
 Red. masses --      1.2845                 1.0368                 1.0693
 Frc consts  --      1.5261                 1.3504                 1.4105
 IR Inten    --     15.0728                 6.6120                 1.1862

                     16                     17                     18
                      A                      A                      A
 Frequencies --   1508.8877              3043.2166              3055.1942
 Red. masses --      1.0688                 1.0348                 1.0564
 Frc consts  --      1.4337                 5.6467                 5.8099
 IR Inten    --      5.9103                10.4346                13.5862

                     19                     20                     21
                      A                      A                      A
 Frequencies --   3096.0954              3109.4166              3120.8248
 Red. masses --      1.1075                 1.1007                 1.1064
 Frc consts  --      6.2551                 6.2704                 6.3492
 IR Inten    --      0.9266                16.9149                31.7768

 - Thermochemistry -
 -------------------
 Temperature   298.150 Kelvin.  Pressure   1.00000 Atm.
 Atom     1 has atomic number  6 and mass  12.00000

 Molecular mass:    61.02895 amu.
 Principal axes and moments of inertia in atomic units:
                           1         2         3
     Eigenvalues --    53.57003 410.04461 440.99537
           X            0.99997  -0.00834  -0.00000
           Y            0.00834   0.99997   0.00000
           Z            0.00000  -0.00000   1.00000
 This molecule is an asymmetric top.
 Rotational symmetry number  1.
 Rotational temperatures (Kelvin)      1.61684     0.21123     0.19641
 Rotational constants (GHZ):          33.68938     4.40133     4.09243
 Zero-point vibrational energy     186881.2 (Joules/Mol)
                                   44.66567 (Kcal/Mol)
 Warning -- explicit consideration of   4 degrees of freedom as
           vibrations may cause significant error
 Vibrational temperatures:    106.83   321.66   441.98   722.77  1159.11
          (Kelvin)           1211.39  1460.72  1631.46  1654.89  1717.39
                             1839.09  1987.06  2043.16  2139.22  2152.81
                             2170.95  4378.51  4395.74  4454.59  4473.76
                             4490.17

 Zero-point correction=                           0.071179 (Hartree/Particle)
 Thermal correction to Energy=                    0.076235
 Thermal correction to Enthalpy=                  0.077180
 Thermal correction to Gibbs Free Energy=         0.042912
 Sum of electronic and zero-point Energies=           -229.556000
 Sum of electronic and thermal Energies=              -229.550944
 Sum of electronic and thermal Enthalpies=            -229.550000
 Sum of electronic and thermal Free Energies=         -229.584268

                     E (Thermal)             CV                S
                      KCal/Mol        Cal/Mol-Kelvin    Cal/Mol-Kelvin
 Total                   47.838             15.523             72.122
 Electronic               0.000              0.000              1.377
 Translational            0.889              2.981             38.246
 Rotational               0.889              2.981             23.786
 Vibrational             46.061              9.562              8.713
 Vibration     1          0.599              1.966              4.037
 Vibration     2          0.649              1.805              1.930
 Vibration     3          0.697              1.660              1.377
 Vibration     4          0.858              1.245              0.652

 Optimization completed.
    -- Stationary point found.
 Normal termination of Gaussian 16 at Tue Feb 22 12:13:22 2022.

 -----------------------------------------------------------------
 #P Geom=AllCheck Guess=TCheck SCRF=Check CCSD(T)/augh-cc-pVDZ+2df
 -----------------------------------------------------------------

 Structure from the checkpoint file:  "CH3CH2OO_w1u.chk"
 ------------
 CH3CH2OO_w1u
 ------------
 Charge =  0 Multiplicity = 2

 SCF Done:  E(UHF) =  -228.275871391     A.U. after   18 cycles
 E2 =    -0.6565714323D+00 EUMP2 =    -0.22893244282359D+03
 CCSD(T)
 CCSD(T)= -0.22900362776D+03
 8.9802789\CCSD(T)=-229.0036278\S2=0.763669\S2-1=0.753278\S2A=0.750134\
 Normal termination of Gaussian 16 at Tue Feb 22 12:15:02 2022.

 -----------------------------------------------------------------
 #P Geom=AllCheck Guess=TCheck SCRF=Check CCSD(T)/augh-cc-pVTZ+2df
 -----------------------------------------------------------------

 Structure from the checkpoint file:  "CH3CH2OO_w1u.chk"
 ------------
 CH3CH2OO_w1u
 ------------
 Charge =  0 Multiplicity = 2

 SCF Done:  E(UHF) =  -228.333766473     A.U. after   14 cycles
 E2 =    -0.8008272190D+00 EUMP2 =    -0.22913459369175D+03
 CCSD(T)
 CCSD(T)= -0.22920679022D+03
 .172347\CCSD(T)=-229.2067902\S2=0.764184\S2-1=0.753375\S2A=0.750146\RM
 Normal termination of Gaussian 16 at Tue Feb 22 12:31:55 2022.

 --------------------------------------------------------------
 #P Geom=AllCheck Guess=TCheck SCRF=Check CCSD/augh-cc-pVQZ+2df
 --------------------------------------------------------------

 Structure from the checkpoint file:  "CH3CH2OO_w1u.chk"
 ------------
 CH3CH2OO_w1u
 ------------
 Charge =  0 Multiplicity = 2

 SCF Done:  E(UHF) =  -228.348253219     A.U. after   11 cycles
 E2 =    -0.8511381201D+00 EUMP2 =    -0.22919939133915D+03
 Normal termination of Gaussian 16 at Tue Feb 22 13:35:54 2022.

 --------------------------------------------------------
 #P Geom=AllCheck Guess=TCheck SCRF=Check CCSD(T)/MTSmall
 --------------------------------------------------------

 Structure from the checkpoint file:  "CH3CH2OO_w1u.chk"
 ------------
 CH3CH2OO_w1u
 ------------
 Charge =  0 Multiplicity = 2

 SCF Done:  E(UHF) =  -228.332167716     A.U. after   13 cycles
 E2 =    -0.8157338742D+00 EUMP2 =    -0.22914790159068D+03
 CCSD(T)
 CCSD(T)= -0.22921570511D+03
 Normal termination of Gaussian 16 at Tue Feb 22 14:10:08 2022.

                         Standard orientation:
 ---------------------------------------------------------------------
 Center     Atomic      Atomic             Coordinates (Angstroms)
 Number     Number       Type             X           Y           Z
 ---------------------------------------------------------------------
      1          6           0        1.744457   -0.181342   -0.000005
      2          6           0        0.414201    0.535217    0.000005
      3          1           0        1.852261   -0.807843    0.884837
      4          1           0        2.551771    0.551299   -0.000002
      5          1           0        1.852256   -0.807830   -0.884857
      6          8           0       -0.633958   -0.480438    0.000009
      7          1           0        0.265409    1.148873    0.887848
      8          1           0        0.265397    1.148879   -0.887833
      9          8           0       -1.833422    0.060860   -0.000007
 ---------------------------------------------------------------------

 SCF Done:  E(UHF) =  -228.465126435     A.U. after   11 cycles
 E2 =    -0.1018470140D+01 EUMP2 =    -0.22948359657563D+03
 CCSD(T)
 CCSD(T)= -0.22955969051D+03

 The electronic state is 2-A.
 Alpha  occ. eigenvalues --  -20.68006 -20.66471 -11.29918 -11.23786  -1.56384
 Alpha  occ. eigenvalues --   -1.20965  -1.01976  -0.86504  -0.75642  -0.69757
 Alpha  occ. eigenvalues --   -0.67378  -0.63848  -0.56270  -0.53679  -0.53569
 Alpha  occ. eigenvalues --   -0.48279  -0.47109
 Alpha virt. eigenvalues --    0.13628   0.17788   0.19146   0.20658   0.23321
 Alpha virt. eigenvalues --    0.25831   0.31771   0.33761   0.37328   0.38146
 Alpha virt. eigenvalues --    0.44736   0.45370   0.53282   0.57549   0.58936

  Beta  occ. eigenvalues --  -20.65585 -20.64076 -11.29986 -11.23792  -1.50182
  Beta  occ. eigenvalues --   -1.12985  -0.99856  -0.85922  -0.67849  -0.66967
  Beta  occ. eigenvalues --   -0.65616  -0.55873  -0.55454  -0.53316  -0.48295
  Beta  occ. eigenvalues --   -0.45230
  Beta virt. eigenvalues --    0.12818   0.13666   0.17828   0.19782   0.20678
  Beta virt. eigenvalues --    0.24032   0.26245   0.31787   0.35191   0.38369
  Beta virt. eigenvalues --    0.38595   0.44991   0.45755   0.53541   0.57572

 Mulliken charges and spin densities:
               1          2
     1  C   -0.080396  -0.002275
     2  C    0.198963  -0.019965
     3  H    0.042405  -0.000250
     4  H    0.027560  -0.001576
     5  H    0.042405  -0.000251
     6  O   -0.191975   0.093430
     7  H    0.025163   0.006091
     8  H    0.025163   0.006091
     9  O   -0.089289   0.918704
 Sum of Mulliken charges =  -0.00000   1.00000

 Dipole moment (field-independent basis, Debye):
    X=              2.3129    Y=              1.1650    Z=             -0.0000  Tot=              2.5898
 Quadrupole moment (field-independent basis, Debye-Ang):
   XX=            -25.8433   YY=            -24.5322   ZZ=            -23.1725
   XY=             -0.2047   XZ=             -0.0000   YZ=              0.0000

 523391\CCSD(T)=-229.5596905\S2=0.762552\S2-1=0.752471\S2A=0.750115\RMS
 Normal termination of Gaussian 16 at Tue Feb 22 15:07:48 2022.
