 Gaussian 16, Revision B.01,
 Gaussian 16:  ES64L-G16RevB.01 20-Dec-2017

 ---------------------------------------------------
 # opt=(calcfc,ts,noeigentest) freq ub3lyp cc-pvtz+d
 ---------------------------------------------------

 -----------------------------------
 QOOHet-OOH-Elimination-TS3a-B3LYP-A
 -----------------------------------
 Symbolic Z-matrix:
 Charge =  0 Multiplicity = 2

 SCF Done:  E(UB3LYP) =  -229.573949796     A.U. after   19 cycles
 SCF Done:  E(UB3LYP) =  -229.574052130     A.U. after   13 cycles
 Optimization completed.
    -- Stationary point found.
 Normal termination of Gaussian 16 at Mon Feb 28 11:37:32 2022.

 ---------------------------------------------------------------------
 #N Geom=AllCheck Guess=TCheck SCRF=Check GenChk UB3LYP/CC-pVTZ+d Freq
 ---------------------------------------------------------------------

 Structure from the checkpoint file:  "QOOHet-OOH-Elimination-TS3a-B3LYP-A.chk"
 -----------------------------------
 QOOHet-OOH-Elimination-TS3a-B3LYP-A
 -----------------------------------
 Charge =  0 Multiplicity = 2

                         Standard orientation:
 ---------------------------------------------------------------------
 Center     Atomic      Atomic             Coordinates (Angstroms)
 Number     Number       Type             X           Y           Z
 ---------------------------------------------------------------------
      1          6           0       -1.625492    0.535263   -0.115726
      2          1           0       -2.181955    0.478982   -1.040579
      3          1           0        1.676417    1.144824   -0.288345
      4          1           0       -1.556027    1.502362    0.362906
      5          6           0       -0.927126   -0.548362    0.362641
      6          1           0       -0.522174   -0.530436    1.363983
      7          1           0       -1.134012   -1.532305   -0.034874
      8          8           0        0.760953   -0.468441   -0.484652
      9          8           0        1.618229    0.345337    0.254079
 ---------------------------------------------------------------------

 SCF Done:  E(UB3LYP) =  -229.574052130     A.U. after    1 cycles

 The electronic state is 2-A.
 Alpha  occ. eigenvalues --  -19.19455 -19.18776 -10.20873 -10.19138  -1.12876
 Alpha  occ. eigenvalues --   -0.86249  -0.77379  -0.60613  -0.52688  -0.48477
 Alpha  occ. eigenvalues --   -0.45423  -0.44133  -0.42652  -0.37376  -0.30578
 Alpha  occ. eigenvalues --   -0.28369  -0.23659
 Alpha virt. eigenvalues --    0.00724   0.03454   0.05265   0.08047   0.08253
 Alpha virt. eigenvalues --    0.09674   0.14111   0.22993   0.24566   0.27720
 Alpha virt. eigenvalues --    0.28600   0.32846   0.36073   0.39780   0.42700

  Beta  occ. eigenvalues --  -19.19177 -19.17286 -10.21110 -10.18321  -1.11306
  Beta  occ. eigenvalues --   -0.83902  -0.76013  -0.59729  -0.52001  -0.48025
  Beta  occ. eigenvalues --   -0.44529  -0.42386  -0.40020  -0.37023  -0.27916
  Beta  occ. eigenvalues --   -0.26319
  Beta virt. eigenvalues --   -0.11287   0.02010   0.04338   0.05633   0.08304
  Beta virt. eigenvalues --    0.08426   0.10467   0.14147   0.23078   0.24760
  Beta virt. eigenvalues --    0.28067   0.29064   0.34856   0.37479   0.40052

 Mulliken charges and spin densities:
               1          2
     1  C   -0.252590   0.583447
     2  H    0.122633  -0.016962
     3  H    0.230212  -0.000879
     4  H    0.123365  -0.017248
     5  C   -0.088775  -0.134602
     6  H    0.134156   0.007460
     7  H    0.126929   0.007107
     8  O   -0.205625   0.483472
     9  O   -0.190305   0.088206
 Sum of Mulliken charges =   0.00000   1.00000

 Dipole moment (field-independent basis, Debye):
    X=             -1.0645    Y=              1.4282    Z=             -0.1638  Tot=              1.7887
 Quadrupole moment (field-independent basis, Debye-Ang):
   XX=            -25.0514   YY=            -21.4456   ZZ=            -24.5962
   XY=              2.9319   XZ=             -0.2865   YZ=             -0.9908

  Exact polarizability:  65.813  -2.393  37.063   0.523  -0.556  30.446
 Approx polarizability:  98.042  -7.050  54.118   0.268   1.329  43.872

 ******    1 imaginary frequencies (negative Signs) ******

                      1                      2                      3
                      A                      A                      A
 Frequencies --   -533.1097                91.2057               227.0998
 Red. masses --     12.0017                 3.1859                 3.3168
 Frc consts  --      2.0097                 0.0156                 0.1008
 IR Inten    --    115.7760                 4.8158                 3.3942

                      4                      5                      6
                      A                      A                      A
 Frequencies --    306.5308               415.9603               470.6679
 Red. masses --      3.0400                 1.0840                 1.3341
 Frc consts  --      0.1683                 0.1105                 0.1741
 IR Inten    --      2.0039               122.6487                17.1194

                      7                      8                      9
                      A                      A                      A
 Frequencies --    817.9757               835.6601               918.9880
 Red. masses --      1.0635                 1.3837                 3.7385
 Frc consts  --      0.4192                 0.5693                 1.8602
 IR Inten    --      0.3795                24.9176               208.9471

                     10                     11                     12
                      A                      A                      A
 Frequencies --   1030.2604              1084.6426              1244.5559
 Red. masses --      1.1229                 1.3554                 1.4582
 Frc consts  --      0.7022                 0.9395                 1.3308
 IR Inten    --     19.8355                 7.1487                 0.1540

                     13                     14                     15
                      A                      A                      A
 Frequencies --   1263.4251              1382.3208              1470.8280
 Red. masses --      1.9650                 1.1100                 1.1134
 Frc consts  --      1.8480                 1.2497                 1.4191
 IR Inten    --      6.0476                38.4981                 7.8712

                     16                     17                     18
                      A                      A                      A
 Frequencies --   1549.3441              3140.8926              3144.8996
 Red. masses --      1.5366                 1.0487                 1.0616
 Frc consts  --      2.1732                 6.0956                 6.1861
 IR Inten    --     10.5755                10.8248                 6.4585

                     19                     20                     21
                      A                      A                      A
 Frequencies --   3216.0621              3241.8410              3717.4656
 Red. masses --      1.1165                 1.1182                 1.0686
 Frc consts  --      6.8040                 6.9237                 8.7005
 IR Inten    --      0.1432                10.4398                42.2611

 - Thermochemistry -
 -------------------
 Temperature   298.150 Kelvin.  Pressure   1.00000 Atm.
 Atom     1 has atomic number  6 and mass  12.00000

 Molecular mass:    61.02895 amu.
 Principal axes and moments of inertia in atomic units:
                           1         2         3
     Eigenvalues --   102.22892 407.84330 441.41212
           X            0.99997   0.00624   0.00498
           Y           -0.00571   0.99497  -0.10001
           Z           -0.00558   0.09998   0.99497
 This molecule is an asymmetric top.
 Rotational symmetry number  1.
 Rotational temperatures (Kelvin)      0.84725     0.21237     0.19622
 Rotational constants (GHZ):          17.65392     4.42508     4.08856
    1 imaginary frequencies ignored.
 Zero-point vibrational energy     176871.6 (Joules/Mol)
                                   42.27333 (Kcal/Mol)
 Warning -- explicit consideration of   5 degrees of freedom as
           vibrations may cause significant error
 Vibrational temperatures:    131.22   326.75   441.03   598.47   677.19
          (Kelvin)           1176.88  1202.33  1322.22  1482.31  1560.56
                             1790.64  1817.79  1988.85  2116.19  2229.16
                             4519.04  4524.81  4627.20  4664.29  5348.60

 Zero-point correction=                           0.067367 (Hartree/Particle)
 Thermal correction to Energy=                    0.072720
 Thermal correction to Enthalpy=                  0.073664
 Thermal correction to Gibbs Free Energy=         0.038805
 Sum of electronic and zero-point Energies=           -229.506685
 Sum of electronic and thermal Energies=              -229.501333
 Sum of electronic and thermal Enthalpies=            -229.500388
 Sum of electronic and thermal Free Energies=         -229.535247

                     E (Thermal)             CV                S
                      KCal/Mol        Cal/Mol-Kelvin    Cal/Mol-Kelvin
 Total                   45.632             17.060             73.366
 Electronic               0.000              0.000              1.377
 Translational            0.889              2.981             38.246
 Rotational               0.889              2.981             24.424
 Vibrational             43.855             11.099              9.319
 Vibration     1          0.602              1.955              3.634
 Vibration     2          0.651              1.800              1.902
 Vibration     3          0.697              1.661              1.381
 Vibration     4          0.779              1.436              0.906
 Vibration     5          0.828              1.315              0.736

 Optimization completed.
    -- Stationary point found.
 Normal termination of Gaussian 16 at Mon Feb 28 11:38:36 2022.
