 Gaussian 16, Revision B.01,
 Gaussian 16:  ES64L-G16RevB.01 20-Dec-2017

 ---------------------------------------------------
 # opt=(calcfc,ts,noeigentest) freq ub3lyp cc-pvtz+d
 ---------------------------------------------------

 --------------------------------------------
 Ret-O2-concerted-OOH-elimination-TS1-B3LYP-A
 --------------------------------------------
 Symbolic Z-matrix:
 Charge =  0 Multiplicity = 2

 SCF Done:  E(UB3LYP) =  -229.577968507     A.U. after   18 cycles
 SCF Done:  E(UB3LYP) =  -229.577993356     A.U. after   15 cycles
 Optimization completed.
    -- Stationary point found.
 Normal termination of Gaussian 16 at Thu Feb 24 20:04:05 2022.

 ---------------------------------------------------------------------
 #N Geom=AllCheck Guess=TCheck SCRF=Check GenChk UB3LYP/CC-pVTZ+d Freq
 ---------------------------------------------------------------------

 Structure from the checkpoint file:  "Ret-O2-concerted-OOH-elimination-TS1-B3LYP-A.chk"
 --------------------------------------------
 Ret-O2-concerted-OOH-elimination-TS1-B3LYP-A
 --------------------------------------------
 Charge =  0 Multiplicity = 2

                         Standard orientation:
 ---------------------------------------------------------------------
 Center     Atomic      Atomic             Coordinates (Angstroms)
 Number     Number       Type             X           Y           Z
 ---------------------------------------------------------------------
      1          6           0       -1.285569   -0.616825    0.000027
      2          1           0       -1.630771   -1.085342    0.915429
      3          1           0        0.026458   -0.950626   -0.000075
      4          1           0       -1.630877   -1.085201   -0.915406
      5          6           0       -1.044096    0.743790    0.000118
      6          1           0       -1.023461    1.316997   -0.914815
      7          1           0       -1.023353    1.316856    0.915137
      8          8           0        1.145733    0.615227   -0.000019
      9          8           0        1.261766   -0.649536   -0.000123
 ---------------------------------------------------------------------

 SCF Done:  E(UB3LYP) =  -229.577993356     A.U. after    1 cycles

 The electronic state is 2-A.
 Alpha  occ. eigenvalues --  -19.23005 -19.22157 -10.21794 -10.17765  -1.21035
 Alpha  occ. eigenvalues --   -0.81441  -0.79122  -0.61041  -0.53760  -0.50802
 Alpha  occ. eigenvalues --   -0.48670  -0.48048  -0.43649  -0.38038  -0.31799
 Alpha  occ. eigenvalues --   -0.27922  -0.27655
 Alpha virt. eigenvalues --   -0.04648   0.04270   0.06890   0.07322   0.13815
 Alpha virt. eigenvalues --    0.14401   0.18075   0.21581   0.22906   0.24346
 Alpha virt. eigenvalues --    0.25805   0.31336   0.37832   0.38609   0.41497

  Beta  occ. eigenvalues --  -19.21597 -19.20394 -10.21869 -10.17757  -1.17974
  Beta  occ. eigenvalues --   -0.79237  -0.77019  -0.61013  -0.52580  -0.49018
  Beta  occ. eigenvalues --   -0.46995  -0.43528  -0.40987  -0.37967  -0.30981
  Beta  occ. eigenvalues --   -0.26479
  Beta virt. eigenvalues --   -0.10375  -0.04360   0.04267   0.06954   0.07327
  Beta virt. eigenvalues --    0.13843   0.15218   0.18892   0.21884   0.23063
  Beta virt. eigenvalues --    0.24356   0.26056   0.31357   0.38152   0.38763

 Mulliken charges and spin densities:
               1          2
     1  C   -0.345286   0.004205
     2  H    0.116682   0.000211
     3  H    0.204895  -0.016157
     4  H    0.116682   0.000211
     5  C   -0.147163  -0.053675
     6  H    0.141889   0.001903
     7  H    0.141889   0.001903
     8  O   -0.137625   0.599226
     9  O   -0.091962   0.462174
 Sum of Mulliken charges =  -0.00000   1.00000

 Dipole moment (field-independent basis, Debye):
    X=             -2.0724    Y=              0.0290    Z=              0.0001  Tot=              2.0726
 Quadrupole moment (field-independent basis, Debye-Ang):
   XX=            -27.5500   YY=            -23.6247   ZZ=            -23.0962
   XY=             -0.1664   XZ=              0.0002   YZ=             -0.0000

  Exact polarizability:  48.828  -1.404  41.752  -0.001   0.001  27.703
 Approx polarizability:  81.894  -7.280  73.670  -0.003   0.003  38.038

 ******    1 imaginary frequencies (negative Signs) ******

                      1                      2                      3
                      A                      A                      A
 Frequencies --  -1089.2415               216.0393               354.2849
 Red. masses --      1.2988                 3.7483                 4.8848
 Frc consts  --      0.9079                 0.1031                 0.3612
 IR Inten    --    190.4700                 1.2644                41.8785

                      4                      5                      6
                      A                      A                      A
 Frequencies --    478.9129               516.9775               643.5291
 Red. masses --      1.0632                 3.5403                 7.4006
 Frc consts  --      0.1437                 0.5575                 1.8057
 IR Inten    --      1.0882                19.5575                 4.2151

                      7                      8                      9
                      A                      A                      A
 Frequencies --    832.9459               891.5177              1016.0131
 Red. masses --      1.0470                 1.0486                 1.2350
 Frc consts  --      0.4280                 0.4911                 0.7511
 IR Inten    --      1.1211                 2.2291                 0.6137

                     10                     11                     12
                      A                      A                      A
 Frequencies --   1040.6236              1233.2915              1299.5412
 Red. masses --      1.2284                 1.4742                 1.0382
 Frc consts  --      0.7838                 1.3211                 1.0330
 IR Inten    --      9.6303                 3.7560                14.0008

                     13                     14                     15
                      A                      A                      A
 Frequencies --   1315.1097              1334.4709              1474.4510
 Red. masses --      2.2064                 3.3235                 1.1108
 Frc consts  --      2.2483                 3.4871                 1.4228
 IR Inten    --     15.3464               208.6081                 3.6655

                     16                     17                     18
                      A                      A                      A
 Frequencies --   1571.0968              1599.0782              3102.4777
 Red. masses --      1.4530                 1.2774                 1.0545
 Frc consts  --      2.1130                 1.9245                 5.9803
 IR Inten    --     42.1879                20.3573                 3.5967

                     19                     20                     21
                      A                      A                      A
 Frequencies --   3160.7059              3177.7927              3246.4129
 Red. masses --      1.0586                 1.1138                 1.1181
 Frc consts  --      6.2308                 6.6266                 6.9431
 IR Inten    --      6.5620                 4.5336                 5.2290

 - Thermochemistry -
 -------------------
 Temperature   298.150 Kelvin.  Pressure   1.00000 Atm.
 Atom     1 has atomic number  6 and mass  12.00000

 Molecular mass:    61.02895 amu.
 Principal axes and moments of inertia in atomic units:
                           1         2         3
     Eigenvalues --   121.94082 320.64432 418.46933
           X            0.99988   0.01534   0.00006
           Y           -0.01534   0.99988  -0.00008
           Z           -0.00006   0.00008   1.00000
 This molecule is an asymmetric top.
 Rotational symmetry number  1.
 Rotational temperatures (Kelvin)      0.71029     0.27012     0.20698
 Rotational constants (GHZ):          14.80014     5.62848     4.31272
    1 imaginary frequencies ignored.
 Zero-point vibrational energy     170499.4 (Joules/Mol)
                                   40.75033 (Kcal/Mol)
 Warning -- explicit consideration of   4 degrees of freedom as
           vibrations may cause significant error
 Vibrational temperatures:    310.83   509.74   689.05   743.82   925.89
          (Kelvin)           1198.42  1282.70  1461.82  1497.23  1774.43
                             1869.75  1892.15  1920.01  2121.41  2260.46
                             2300.72  4463.77  4547.55  4572.13  4670.86

 Zero-point correction=                           0.064940 (Hartree/Particle)
 Thermal correction to Energy=                    0.069504
 Thermal correction to Enthalpy=                  0.070448
 Thermal correction to Gibbs Free Energy=         0.037467
 Sum of electronic and zero-point Energies=           -229.513054
 Sum of electronic and thermal Energies=              -229.508489
 Sum of electronic and thermal Enthalpies=            -229.507545
 Sum of electronic and thermal Free Energies=         -229.540527

                     E (Thermal)             CV                S
                      KCal/Mol        Cal/Mol-Kelvin    Cal/Mol-Kelvin
 Total                   43.615             15.398             69.416
 Electronic               0.000              0.000              1.377
 Translational            0.889              2.981             38.246
 Rotational               0.889              2.981             24.307
 Vibrational             41.837              9.436              5.486
 Vibration     1          0.645              1.817              1.992
 Vibration     2          0.730              1.566              1.147
 Vibration     3          0.835              1.297              0.713
 Vibration     4          0.872              1.212              0.617

 Optimization completed.
    -- Stationary point found.
 Normal termination of Gaussian 16 at Thu Feb 24 20:05:17 2022.
