 Gaussian 16, Revision B.01,
 Gaussian 16:  ES64L-G16RevB.01 20-Dec-2017

 ---------------------------------------------------
 # opt=(calcfc,ts,noeigentest) freq ub3lyp cc-pvtz+d
 ---------------------------------------------------

 ----------------------------
 RetO2-H-Transfer-TS2-B3LYP-A
 ----------------------------
 Symbolic Z-matrix:
 Charge =  0 Multiplicity = 2

 SCF Done:  E(UB3LYP) =  -229.561962282     A.U. after   21 cycles
 SCF Done:  E(UB3LYP) =  -229.561965013     A.U. after   16 cycles
 Optimization completed.
    -- Stationary point found.
 Normal termination of Gaussian 16 at Mon Feb 28 10:16:09 2022.

 ---------------------------------------------------------------------
 #N Geom=AllCheck Guess=TCheck SCRF=Check GenChk UB3LYP/CC-pVTZ+d Freq
 ---------------------------------------------------------------------

 Structure from the checkpoint file:  "RetO2-H-Transfer-TS2-B3LYP-A.chk"
 ----------------------------
 RetO2-H-Transfer-TS2-B3LYP-A
 ----------------------------
 Charge =  0 Multiplicity = 2

                         Standard orientation:
 ---------------------------------------------------------------------
 Center     Atomic      Atomic             Coordinates (Angstroms)
 Number     Number       Type             X           Y           Z
 ---------------------------------------------------------------------
      1          6           0       -1.222388   -0.566466   -0.119613
      2          1           0       -1.941196   -0.966413    0.586382
      3          1           0        0.022943   -1.137914    0.059018
      4          1           0       -1.471076   -0.736313   -1.162951
      5          6           0       -0.540324    0.752654    0.211403
      6          1           0       -0.961280    1.623724   -0.293709
      7          1           0       -0.528184    0.915931    1.291989
      8          8           0        0.791214    0.598096   -0.290043
      9          8           0        1.140669   -0.700114    0.161109
 ---------------------------------------------------------------------

 SCF Done:  E(UB3LYP) =  -229.561965013     A.U. after    1 cycles

 The electronic state is 2-A.
 Alpha  occ. eigenvalues --  -19.19919 -19.19585 -10.24614 -10.21419  -1.14154
 Alpha  occ. eigenvalues --   -0.89016  -0.77722  -0.62783  -0.54537  -0.50902
 Alpha  occ. eigenvalues --   -0.47988  -0.43713  -0.40538  -0.38548  -0.34939
 Alpha  occ. eigenvalues --   -0.27616  -0.26054
 Alpha virt. eigenvalues --    0.02548   0.03914   0.06988   0.07189   0.11749
 Alpha virt. eigenvalues --    0.12483   0.14561   0.18133   0.22806   0.24254
 Alpha virt. eigenvalues --    0.27291   0.33750   0.35265   0.38789   0.39372

  Beta  occ. eigenvalues --  -19.19742 -19.18324 -10.24632 -10.20525  -1.12844
  Beta  occ. eigenvalues --   -0.86985  -0.75971  -0.61610  -0.52383  -0.50238
  Beta  occ. eigenvalues --   -0.47161  -0.42560  -0.38545  -0.37516  -0.33914
  Beta  occ. eigenvalues --   -0.24976
  Beta virt. eigenvalues --   -0.14507   0.03240   0.04208   0.07283   0.07339
  Beta virt. eigenvalues --    0.12005   0.13077   0.16132   0.18698   0.23050
  Beta virt. eigenvalues --    0.24928   0.27569   0.33947   0.36278   0.39865

 Mulliken charges and spin densities:
               1          2
     1  C   -0.284302   0.597488
     2  H    0.115030  -0.013446
     3  H    0.189194  -0.049603
     4  H    0.119426  -0.011717
     5  C    0.044228   0.002098
     6  H    0.090670   0.009392
     7  H    0.080275   0.000371
     8  O   -0.151305   0.048401
     9  O   -0.203216   0.417016
 Sum of Mulliken charges =   0.00000   1.00000

 Dipole moment (field-independent basis, Debye):
    X=             -3.0082    Y=              0.2413    Z=              0.3397  Tot=              3.0370
 Quadrupole moment (field-independent basis, Debye-Ang):
   XX=            -25.9827   YY=            -23.6826   ZZ=            -24.3415
   XY=              0.2115   XZ=              0.2536   YZ=              0.3318

  Exact polarizability:  50.202   2.804  37.132   1.920   0.445  29.437
 Approx polarizability:  74.299   0.985  55.163   2.033  -2.874  40.954

 ******    1 imaginary frequencies (negative Signs) ******

                      1                      2                      3
                      A                      A                      A
 Frequencies --  -2274.2560               274.9541               438.7388
 Red. masses --      1.1006                 2.0005                 1.4494
 Frc consts  --      3.3541                 0.0891                 0.1644
 IR Inten    --   1130.5701                 1.6419                 0.7122

                      4                      5                      6
                      A                      A                      A
 Frequencies --    554.4706               687.2618               868.9591
 Red. masses --      3.4287                 2.3813                 1.7081
 Frc consts  --      0.6211                 0.6627                 0.7599
 IR Inten    --      7.1495                 1.4285                 3.4241

                      7                      8                      9
                      A                      A                      A
 Frequencies --    899.9893               906.2836               962.5398
 Red. masses --      1.7879                 4.7894                 3.8323
 Frc consts  --      0.8532                 2.3177                 2.0919
 IR Inten    --     12.0926                33.9633                 1.3535

                     10                     11                     12
                      A                      A                      A
 Frequencies --   1047.0938              1110.8987              1169.2613
 Red. masses --      2.0674                 1.0679                 1.6588
 Frc consts  --      1.3355                 0.7765                 1.3362
 IR Inten    --     20.0595                27.2355                 4.0891

                     13                     14                     15
                      A                      A                      A
 Frequencies --   1244.6992              1346.9688              1456.7294
 Red. masses --      1.2069                 1.2282                 1.1396
 Frc consts  --      1.1017                 1.3129                 1.4248
 IR Inten    --      2.5064                 1.2985                 2.6957

                     16                     17                     18
                      A                      A                      A
 Frequencies --   1499.5115              1723.6265              3022.5170
 Red. masses --      1.0960                 1.0357                 1.0581
 Frc consts  --      1.4520                 1.8129                 5.6953
 IR Inten    --      0.8609                25.7390                41.5307

                     19                     20                     21
                      A                      A                      A
 Frequencies --   3077.4755              3101.5997              3192.2292
 Red. masses --      1.1044                 1.0549                 1.1136
 Frc consts  --      6.1627                 5.9792                 6.6861
 IR Inten    --     14.8693                 8.7902                 9.6708

 - Thermochemistry -
 -------------------
 Temperature   298.150 Kelvin.  Pressure   1.00000 Atm.
 Atom     1 has atomic number  6 and mass  12.00000

 Molecular mass:    61.02895 amu.
 Principal axes and moments of inertia in atomic units:
                           1         2         3
     Eigenvalues --   130.06722 232.15258 319.99179
           X            0.99950   0.03142   0.00316
           Y           -0.03152   0.99880   0.03741
           Z           -0.00198  -0.03750   0.99929
 This molecule is an asymmetric top.
 Rotational symmetry number  1.
 Rotational temperatures (Kelvin)      0.66592     0.37309     0.27068
 Rotational constants (GHZ):          13.87545     7.77394     5.63996
    1 imaginary frequencies ignored.
 Zero-point vibrational energy     170981.1 (Joules/Mol)
                                   40.86546 (Kcal/Mol)
 Warning -- explicit consideration of   3 degrees of freedom as
           vibrations may cause significant error
 Vibrational temperatures:    395.60   631.25   797.76   988.82  1250.24
          (Kelvin)           1294.88  1303.94  1384.88  1506.53  1598.34
                             1682.31  1790.84  1937.99  2095.91  2157.46
                             2479.91  4348.73  4427.80  4462.51  4592.91

 Zero-point correction=                           0.065123 (Hartree/Particle)
 Thermal correction to Energy=                    0.069306
 Thermal correction to Enthalpy=                  0.070250
 Thermal correction to Gibbs Free Energy=         0.038192
 Sum of electronic and zero-point Energies=           -229.496842
 Sum of electronic and thermal Energies=              -229.492659
 Sum of electronic and thermal Enthalpies=            -229.491715
 Sum of electronic and thermal Free Energies=         -229.523773

                     E (Thermal)             CV                S
                      KCal/Mol        Cal/Mol-Kelvin    Cal/Mol-Kelvin
 Total                   43.490             14.332             67.473
 Electronic               0.000              0.000              1.377
 Translational            0.889              2.981             38.246
 Rotational               0.889              2.981             23.784
 Vibrational             41.713              8.370              4.066
 Vibration     1          0.677              1.720              1.565
 Vibration     2          0.799              1.386              0.831
 Vibration     3          0.910              1.130              0.535

 Optimization completed.
    -- Stationary point found.
 Normal termination of Gaussian 16 at Mon Feb 28 10:17:20 2022.
