 Gaussian 16, Revision B.01,
 Gaussian 16:  ES64L-G16RevB.01 20-Dec-2017

 ---------------------------------------------------
 # opt=(calcfc,ts,noeigentest) freq ub3lyp cc-pvtz+d
 ---------------------------------------------------

 ---------------------------
 QOOHet-OH-Elimination-TS3-A
 ---------------------------
 Symbolic Z-matrix:
 Charge =  0 Multiplicity = 2

 SCF Done:  E(UB3LYP) =  -229.570898314     A.U. after   20 cycles
 SCF Done:  E(UB3LYP) =  -229.570995220     A.U. after   14 cycles
 SCF Done:  E(UB3LYP) =  -229.570995244     A.U. after   11 cycles
 Optimization completed.
    -- Stationary point found.
 Normal termination of Gaussian 16 at Mon Feb 28 13:16:04 2022.

 ---------------------------------------------------------------------
 #N Geom=AllCheck Guess=TCheck SCRF=Check GenChk UB3LYP/CC-pVTZ+d Freq
 ---------------------------------------------------------------------

 Structure from the checkpoint file:  "QOOHet-OH-Elimination-TS3-A.chk"
 ---------------------------
 QOOHet-OH-Elimination-TS3-A
 ---------------------------
 Charge =  0 Multiplicity = 2

                         Standard orientation:
 ---------------------------------------------------------------------
 Center     Atomic      Atomic             Coordinates (Angstroms)
 Number     Number       Type             X           Y           Z
 ---------------------------------------------------------------------
      1          6           0        1.694417   -0.258022    0.043055
      2          1           0        2.126977   -0.605577   -0.881634
      3          1           0       -2.125997   -0.710448    0.532811
      4          1           0        1.991309   -0.727872    0.967095
      5          6           0        0.582893    0.704239    0.030160
      6          1           0        0.404487    1.231206    0.968323
      7          1           0        0.540807    1.384108   -0.822162
      8          8           0       -0.200115   -0.444105   -0.124266
      9          8           0       -1.875066    0.038015   -0.026199
 ---------------------------------------------------------------------

 SCF Done:  E(UB3LYP) =  -229.570995244     A.U. after    1 cycles

 The electronic state is 2-A.
 Alpha  occ. eigenvalues --  -19.17130 -19.14311 -10.23619 -10.23538  -1.04364
 Alpha  occ. eigenvalues --   -0.95008  -0.74019  -0.62780  -0.51069  -0.49733
 Alpha  occ. eigenvalues --   -0.44452  -0.41306  -0.40603  -0.36624  -0.31117
 Alpha  occ. eigenvalues --   -0.26892  -0.24931
 Alpha virt. eigenvalues --   -0.04872   0.03927   0.05960   0.07461   0.07993
 Alpha virt. eigenvalues --    0.12673   0.13520   0.21777   0.22373   0.28339
 Alpha virt. eigenvalues --    0.28472   0.33966   0.37963   0.39412   0.41366

  Beta  occ. eigenvalues --  -19.17390 -19.12812 -10.23677 -10.22576  -1.04044
  Beta  occ. eigenvalues --   -0.91943  -0.72480  -0.61977  -0.50719  -0.48958
  Beta  occ. eigenvalues --   -0.43676  -0.40893  -0.39917  -0.33916  -0.30517
  Beta  occ. eigenvalues --   -0.26105
  Beta virt. eigenvalues --   -0.11735  -0.01222   0.04190   0.06505   0.07561
  Beta virt. eigenvalues --    0.08255   0.12991   0.13585   0.21938   0.22769
  Beta virt. eigenvalues --    0.28510   0.31067   0.35487   0.38177   0.39632

 Mulliken charges and spin densities:
               1          2
     1  C   -0.188069   0.685130
     2  H    0.142414  -0.018918
     3  H    0.223172  -0.006557
     4  H    0.140453  -0.017806
     5  C    0.101608  -0.024161
     6  H    0.069754   0.004062
     7  H    0.074389   0.000811
     8  O   -0.248095  -0.172415
     9  O   -0.315626   0.549854
 Sum of Mulliken charges =  -0.00000   1.00000

 Dipole moment (field-independent basis, Debye):
    X=              2.3522    Y=             -0.1585    Z=              1.0832  Tot=              2.5945
 Quadrupole moment (field-independent basis, Debye-Ang):
   XX=            -22.5191   YY=            -23.6219   ZZ=            -23.3524
   XY=              1.5946   XZ=             -2.2591   YZ=             -1.1788

  Exact polarizability:  70.572  -2.232  31.471  -0.945  -1.056  28.893
 Approx polarizability: 114.299  -4.289  43.766   0.622  -1.439  38.848

 ******    1 imaginary frequencies (negative Signs) ******

                      1                      2                      3
                      A                      A                      A
 Frequencies --   -753.5035                90.8140               134.8719
 Red. masses --     13.0063                 4.2440                 1.1335
 Frc consts  --      4.3508                 0.0206                 0.0121
 IR Inten    --    131.7539                 3.2603               104.0374

                      4                      5                      6
                      A                      A                      A
 Frequencies --    258.8011               400.1051               505.8126
 Red. masses --      4.2729                 6.1469                 1.0603
 Frc consts  --      0.1686                 0.5798                 0.1598
 IR Inten    --      2.9927                16.0050                 1.6827

                      7                      8                      9
                      A                      A                      A
 Frequencies --    781.5253               838.0150               937.2796
 Red. masses --      1.2637                 1.0527                 1.3274
 Frc consts  --      0.4548                 0.4356                 0.6871
 IR Inten    --     41.5215                 0.3600                70.6659

                     10                     11                     12
                      A                      A                      A
 Frequencies --    997.2226              1166.4545              1170.4344
 Red. masses --      2.7531                 2.5906                 1.2604
 Frc consts  --      1.6131                 2.0768                 1.0173
 IR Inten    --     31.7491                10.8709                 2.1902

                     13                     14                     15
                      A                      A                      A
 Frequencies --   1203.4706              1317.1301              1471.1226
 Red. masses --      1.3108                 1.4178                 1.1796
 Frc consts  --      1.1186                 1.4492                 1.5041
 IR Inten    --      0.0644                 5.3666                 4.3393

                     16                     17                     18
                      A                      A                      A
 Frequencies --   1535.9148              3031.5855              3084.1669
 Red. masses --      1.1385                 1.0522                 1.1142
 Frc consts  --      1.5824                 5.6975                 6.2446
 IR Inten    --      2.8229                43.5784                31.9014

                     19                     20                     21
                      A                      A                      A
 Frequencies --   3167.4547              3281.3366              3777.9256
 Red. masses --      1.0497                 1.1220                 1.0679
 Frc consts  --      6.2050                 7.1176                 8.9800
 IR Inten    --      0.6475                 1.8481                46.0999

 - Thermochemistry -
 -------------------
 Temperature   298.150 Kelvin.  Pressure   1.00000 Atm.
 Atom     1 has atomic number  6 and mass  12.00000

 Molecular mass:    61.02895 amu.
 Principal axes and moments of inertia in atomic units:
                           1         2         3
     Eigenvalues --    66.78695 402.59282 441.61654
           X            0.99995  -0.00002  -0.01039
           Y           -0.00044   0.99902  -0.04430
           Z            0.01038   0.04430   0.99896
 This molecule is an asymmetric top.
 Rotational symmetry number  1.
 Rotational temperatures (Kelvin)      1.29687     0.21514     0.19613
 Rotational constants (GHZ):          27.02236     4.48280     4.08667
    1 imaginary frequencies ignored.
 Zero-point vibrational energy     174364.4 (Joules/Mol)
                                   41.67408 (Kcal/Mol)
 Warning -- explicit consideration of   5 degrees of freedom as
           vibrations may cause significant error
 Vibrational temperatures:    130.66   194.05   372.36   575.66   727.75
          (Kelvin)           1124.44  1205.72  1348.54  1434.78  1678.27
                             1683.99  1731.53  1895.06  2116.62  2209.84
                             4361.78  4437.43  4557.26  4721.11  5435.59

 Zero-point correction=                           0.066412 (Hartree/Particle)
 Thermal correction to Energy=                    0.071981
 Thermal correction to Enthalpy=                  0.072925
 Thermal correction to Gibbs Free Energy=         0.037668
 Sum of electronic and zero-point Energies=           -229.504583
 Sum of electronic and thermal Energies=              -229.499014
 Sum of electronic and thermal Enthalpies=            -229.498070
 Sum of electronic and thermal Free Energies=         -229.533328

                     E (Thermal)             CV                S
                      KCal/Mol        Cal/Mol-Kelvin    Cal/Mol-Kelvin
 Total                   45.169             17.339             74.206
 Electronic               0.000              0.000              1.377
 Translational            0.889              2.981             38.246
 Rotational               0.889              2.981             23.989
 Vibrational             43.391             11.377             10.594
 Vibration     1          0.602              1.956              3.642
 Vibration     2          0.613              1.919              2.875
 Vibration     3          0.668              1.748              1.670
 Vibration     4          0.766              1.470              0.962
 Vibration     5          0.861              1.237              0.644

 Optimization completed.
    -- Stationary point found.
 Normal termination of Gaussian 16 at Mon Feb 28 13:17:10 2022.
