 Gaussian 16, Revision C.01,
 Gaussian 16:  ES64L-G16RevC.01  3-Jul-2019

 ----------------------------------------------------------------------
 #p B3LYP/cc-PVTZ scf(verytight, maxcycles=1000) opt(calcfc, maxcyc=100
 0) freq(hpmodes) int(grid=ultrafine)
 ----------------------------------------------------------------------

 ------
 Mol_01
 ------
 Symbolic Z-matrix:
 Charge =  0 Multiplicity = 2

 SCF Done:  E(UB3LYP) =  -118.512294312     A.U. after   12 cycles
 SCF Done:  E(UB3LYP) =  -118.522254944     A.U. after   11 cycles
 SCF Done:  E(UB3LYP) =  -118.525232140     A.U. after   11 cycles
 SCF Done:  E(UB3LYP) =  -118.526238751     A.U. after   11 cycles
 SCF Done:  E(UB3LYP) =  -118.526316825     A.U. after   10 cycles
 SCF Done:  E(UB3LYP) =  -118.526320245     A.U. after    7 cycles
 SCF Done:  E(UB3LYP) =  -118.526321766     A.U. after    7 cycles
 SCF Done:  E(UB3LYP) =  -118.526322202     A.U. after    7 cycles
 SCF Done:  E(UB3LYP) =  -118.526322277     A.U. after    7 cycles
 Optimization completed.
    -- Stationary point found.

 1\1\GINC-MEDIAWIKI\FOpt\UB3LYP\CC-pVTZ\C3H7(2)\SAURABH\07-Apr-2022\0\\
 #p B3LYP/cc-PVTZ scf(verytight, maxcycles=1000) opt(calcfc, maxcyc=100
 0) freq(hpmodes) int(grid=ultrafine)\\Mol_01\\0,2\C,-3.4974744553,1.06
 21011969,-0.0319279168\C,-2.1843720015,1.7298642553,-0.2307614934\C,-0
 .9102928067,0.9875732531,-0.0425952956\H,-4.3228200651,1.7743617736,-0
 .0259611509\H,-3.5255691113,0.5017761993,0.908752486\H,-3.7116944518,0
 .3289569947,-0.8250161807\H,-2.1583004775,2.7026172055,-0.7036794651\H
 ,-0.9067499193,0.4263370241,0.8979547446\H,-0.0452937491,1.6511406797,

 Normal termination of Gaussian 16 at Thu Apr  7 11:20:37 2022.

 -------------------------------------------------------------------
 #P Geom=AllCheck Guess=TCheck SCRF=Check GenChk UB3LYP/CC-pVTZ Freq
 -------------------------------------------------------------------

 Structure from the checkpoint file:  "Mol_01.chk"
 ------
 Mol_01
 ------
 Charge =  0 Multiplicity = 2

                         Standard orientation:
 ---------------------------------------------------------------------
 Center     Atomic      Atomic             Coordinates (Angstroms)
 Number     Number       Type             X           Y           Z
 ---------------------------------------------------------------------
      1          6           0        1.294138   -0.197180    0.002337
      2          6           0       -0.000000    0.532887   -0.041105
      3          6           0       -1.294138   -0.197180    0.002337
      4          1           0        2.139669    0.453710   -0.221196
      5          1           0        1.309964   -1.030634   -0.708112
      6          1           0        1.483889   -0.641834    0.991608
      7          1           0        0.000000    1.606355    0.093979
      8          1           0       -1.309964   -1.030634   -0.708112
      9          1           0       -2.139669    0.453710   -0.221196
     10          1           0       -1.483889   -0.641835    0.991608
 ---------------------------------------------------------------------

 SCF Done:  E(UB3LYP) =  -118.526322277     A.U. after    1 cycles

 The electronic state is 2-A.
 Alpha  occ. eigenvalues --  -10.17659 -10.16502 -10.16502  -0.78428  -0.69325
 Alpha  occ. eigenvalues --   -0.57293  -0.45507  -0.43237  -0.41223  -0.38816
 Alpha  occ. eigenvalues --   -0.35813  -0.35108  -0.18584
 Alpha virt. eigenvalues --    0.04043   0.07140   0.07339   0.10434   0.11856
 Alpha virt. eigenvalues --    0.12711   0.13903   0.17775   0.23601   0.23927
 Alpha virt. eigenvalues --    0.25492   0.28381   0.29027   0.32987   0.35895

  Beta  occ. eigenvalues --  -10.16589 -10.16588 -10.16267  -0.76739  -0.69084
  Beta  occ. eigenvalues --   -0.55183  -0.45075  -0.41496  -0.40654  -0.38142
  Beta  occ. eigenvalues --   -0.35472  -0.34577
  Beta virt. eigenvalues --   -0.04260   0.04150   0.07440   0.07461   0.10788
  Beta virt. eigenvalues --    0.12187   0.12831   0.14165   0.18237   0.23852
  Beta virt. eigenvalues --    0.24163   0.25662   0.28686   0.30188   0.33899

 Mulliken charges and spin densities:
               1          2
     1  C   -0.268962  -0.049946
     2  C   -0.141927   0.953194
     3  C   -0.268962  -0.049946
     4  H    0.099220   0.003518
     5  H    0.092674   0.025074
     6  H    0.090567   0.059699
     7  H    0.114929  -0.029883
     8  H    0.092674   0.025074
     9  H    0.099220   0.003518
    10  H    0.090567   0.059699
 Sum of Mulliken charges =  -0.00000   1.00000

 Dipole moment (field-independent basis, Debye):
    X=             -0.0000    Y=             -0.0993    Z=              0.1456  Tot=              0.1763
 Quadrupole moment (field-independent basis, Debye-Ang):
   XX=            -20.9043   YY=            -20.8233   ZZ=            -21.7862
   XY=              0.0000   XZ=              0.0000   YZ=              0.2268

  Exact polarizability:      44.261       0.000      37.536       0.000      -0.258      32.427
 Approx polarizability:      52.391       0.000      50.879       0.000      -0.404      45.320

                      1                      2                      3
                      A                      A                      A
 Frequencies --    108.0142               110.0636               351.0519
 Red. masses --      1.0219                 1.1304                 1.6100
 Frc consts  --      0.0070                 0.0081                 0.1169
 IR Inten    --      0.0125                 0.8034                13.7217

                      4                      5                      6
                      A                      A                      A
 Frequencies --    390.5172               884.7674               941.2064
 Red. masses --      1.6219                 2.6541                 1.2047
 Frc consts  --      0.1457                 1.2241                 0.6288
 IR Inten    --     10.2195                 1.9090                 0.0434

                      7                      8                      9
                      A                      A                      A
 Frequencies --    948.1429              1029.2895              1146.0139
 Red. masses --      1.1971                 1.4448                 2.0749
 Frc consts  --      0.6341                 0.9018                 1.6056
 IR Inten    --      0.9385                 0.0448                 0.2694

                     10                     11                     12
                      A                      A                      A
 Frequencies --   1181.1098              1371.8999              1409.4355
 Red. masses --      1.8828                 1.3382                 1.4493
 Frc consts  --      1.5475                 1.4839                 1.6963
 IR Inten    --      2.3943                 3.0934                 6.7546

                     13                     14                     15
                      A                      A                      A
 Frequencies --   1414.2704              1468.3527              1477.4209
 Red. masses --      1.2002                 1.0741                 1.0410
 Frc consts  --      1.4144                 1.3644                 1.3388
 IR Inten    --      4.1612                 0.6185                 0.9473

                     16                     17                     18
                      A                      A                      A
 Frequencies --   1478.6875              1491.0577              2933.1961
 Red. masses --      1.0498                 1.0511                 1.0609
 Frc consts  --      1.3524                 1.3768                 5.3779
 IR Inten    --     12.9690                 4.1366                23.8347

                     19                     20                     21
                      A                      A                      A
 Frequencies --   2937.2405              3007.7790              3009.0800
 Red. masses --      1.0632                 1.0750                 1.0720
 Frc consts  --      5.4042                 5.7299                 5.7188
 IR Inten    --     57.8790                 7.9171                51.1471

                     22                     23                     24
                      A                      A                      A
 Frequencies --   3082.4644              3083.5626              3167.9761
 Red. masses --      1.0934                 1.0944                 1.0887
 Frc consts  --      6.1212                 6.1308                 6.4374
 IR Inten    --     17.6099                29.8740                26.4669

 - Thermochemistry -
 -------------------
 Temperature   298.150 Kelvin.  Pressure   1.00000 Atm.
 Atom     1 has atomic number  6 and mass  12.00000

 Molecular mass:    43.05478 amu.
 Principal axes and moments of inertia in atomic units:
                           1         2         3
     Eigenvalues --    47.96413 215.82563 241.52717
           X            1.00000   0.00000   0.00000
           Y           -0.00000   0.99983   0.01831
           Z           -0.00000  -0.01831   0.99983
 This molecule is an asymmetric top.
 Rotational symmetry number  1.
 Rotational temperatures (Kelvin)      1.80581     0.40131     0.35861
 Rotational constants (GHZ):          37.62690     8.36203     7.47221
 Zero-point vibrational energy     229818.2 (Joules/Mol)
                                   54.92786 (Kcal/Mol)
 Warning -- explicit consideration of   4 degrees of freedom as
           vibrations may cause significant error
 Vibrational temperatures:    155.41   158.36   505.09   561.87  1272.98
          (Kelvin)           1354.19  1364.17  1480.92  1648.86  1699.35
                             1973.86  2027.86  2034.82  2112.63  2125.68
                             2127.50  2145.30  4220.21  4226.03  4327.52
                             4329.39  4434.98  4436.56  4558.01

 Zero-point correction=                           0.087533 (Hartree/Particle)
 Thermal correction to Energy=                    0.092744
 Thermal correction to Enthalpy=                  0.093688
 Thermal correction to Gibbs Free Energy=         0.060227
 Sum of electronic and zero-point Energies=           -118.438789
 Sum of electronic and thermal Energies=              -118.433579
 Sum of electronic and thermal Enthalpies=            -118.432635
 Sum of electronic and thermal Free Energies=         -118.466095

                     E (Thermal)             CV                S
                      KCal/Mol        Cal/Mol-Kelvin    Cal/Mol-Kelvin
 Total                   58.197             15.764             70.423
 Electronic               0.000              0.000              1.377
 Translational            0.889              2.981             37.206
 Rotational               0.889              2.981             22.441
 Vibrational             56.420              9.803              9.399
 Vibration     1          0.606              1.943              3.304
 Vibration     2          0.606              1.941              3.268
 Vibration     3          0.728              1.573              1.161
 Vibration     4          0.758              1.490              0.998

 Optimization completed.
    -- Stationary point found.

 1\1\GINC-MEDIAWIKI\Freq\UB3LYP\CC-pVTZ\C3H7(2)\SAURABH\07-Apr-2022\0\\
 #P Geom=AllCheck Guess=TCheck SCRF=Check GenChk UB3LYP/CC-pVTZ Freq\\M
 ol_01\\0,2\C,-3.4974744553,1.0621011969,-0.0319279168\C,-2.1843720015,
 1.7298642553,-0.2307614934\C,-0.9102928067,0.9875732531,-0.0425952956\
 H,-4.3228200651,1.7743617736,-0.0259611509\H,-3.5255691113,0.501776199
 3,0.908752486\H,-3.7116944518,0.3289569947,-0.8250161807\H,-2.15830047
 75,2.7026172055,-0.7036794651\H,-0.9067499193,0.4263370241,0.897954744
 6\H,-0.0452937491,1.6511406797,-0.0435982069\H,-0.7451729526,0.2435014

 Normal termination of Gaussian 16 at Thu Apr  7 11:22:06 2022.
