 Gaussian 16, Revision C.01,
 Gaussian 16:  ES64L-G16RevC.01  3-Jul-2019

 ----------------------------------------------------------------------
 #p B3LYP/cc-PVTZ scf(verytight, maxcycles=1000) opt(calcfc, maxcyc=100
 0) freq(hpmodes) int(grid=ultrafine)
 ----------------------------------------------------------------------

 ------
 Mol_02
 ------
 Symbolic Z-matrix:
 Charge =  0 Multiplicity = 2

 SCF Done:  E(UB3LYP) =  -268.953499214     A.U. after   19 cycles
 SCF Done:  E(UB3LYP) =  -268.960445460     A.U. after   15 cycles
 SCF Done:  E(UB3LYP) =  -268.960817405     A.U. after   18 cycles
 SCF Done:  E(UB3LYP) =  -268.960843396     A.U. after   14 cycles
 SCF Done:  E(UB3LYP) =  -268.960844097     A.U. after   11 cycles
 Optimization completed.
    -- Stationary point found.
 Normal termination of Gaussian 16 at Thu Apr  7 11:29:17 2022.

 -------------------------------------------------------------------
 #P Geom=AllCheck Guess=TCheck SCRF=Check GenChk UB3LYP/CC-pVTZ Freq
 -------------------------------------------------------------------

 Structure from the checkpoint file:  "Mol_02.chk"
 ------
 Mol_02
 ------
 Charge =  0 Multiplicity = 2

                         Standard orientation:
 ---------------------------------------------------------------------
 Center     Atomic      Atomic             Coordinates (Angstroms)
 Number     Number       Type             X           Y           Z
 ---------------------------------------------------------------------
      1          6           0        1.557589   -0.849100    0.019749
      2          6           0        0.367826    0.018772   -0.337445
      3          6           0        0.486014    1.463512    0.108219
      4          1           0        1.401385   -1.878604   -0.300108
      5          1           0        1.732552   -0.841900    1.096080
      6          1           0        2.451715   -0.467755   -0.473428
      7          1           0        0.689245    1.522585    1.178287
      8          1           0       -0.435814    2.000834   -0.107015
      9          1           0        1.302902    1.950956   -0.425191
     10          8           0       -0.787241   -0.604232    0.337199
     11          8           0       -1.931838   -0.151722   -0.125850
     12          1           0        0.142070   -0.037586   -1.402548
 ---------------------------------------------------------------------

 SCF Done:  E(UB3LYP) =  -268.960844097     A.U. after    1 cycles

 The electronic state is 2-A.
 Alpha  occ. eigenvalues --  -19.24192 -19.19201 -10.24719 -10.18340 -10.17955
 Alpha  occ. eigenvalues --   -1.18779  -0.88709  -0.77312  -0.71296  -0.60890
 Alpha  occ. eigenvalues --   -0.53018  -0.50170  -0.48604  -0.45080  -0.41801
 Alpha  occ. eigenvalues --   -0.41317  -0.40392  -0.37177  -0.36358  -0.27913
 Alpha  occ. eigenvalues --   -0.27808
 Alpha virt. eigenvalues --    0.02951   0.06464   0.06954   0.07637   0.10009
 Alpha virt. eigenvalues --    0.10844   0.12186   0.13059   0.14046   0.16401
 Alpha virt. eigenvalues --    0.20170   0.23271   0.23667   0.28274   0.29811

  Beta  occ. eigenvalues --  -19.23184 -19.17279 -10.24757 -10.18338 -10.17927
  Beta  occ. eigenvalues --   -1.16096  -0.86320  -0.75688  -0.71203  -0.60303
  Beta  occ. eigenvalues --   -0.51562  -0.48275  -0.47184  -0.42575  -0.41365
  Beta  occ. eigenvalues --   -0.41041  -0.39065  -0.36560  -0.34916  -0.26157
  Beta virt. eigenvalues --   -0.10804   0.03016   0.06616   0.07012   0.07945
  Beta virt. eigenvalues --    0.10160   0.11306   0.12316   0.13172   0.14637
  Beta virt. eigenvalues --    0.17144   0.20205   0.23354   0.23762   0.28345

 Mulliken charges and spin densities:
               1          2
     1  C   -0.292177   0.000432
     2  C    0.119189  -0.017506
     3  C   -0.285383   0.014788
     4  H    0.110075  -0.000072
     5  H    0.100018  -0.000177
     6  H    0.097145  -0.000915
     7  H    0.096536  -0.000398
     8  H    0.116417  -0.001488
     9  H    0.093740  -0.000770
    10  O   -0.067210   0.301963
    11  O   -0.181996   0.692501
    12  H    0.093645   0.011642
 Sum of Mulliken charges =  -0.00000   1.00000

 Dipole moment (field-independent basis, Debye):
    X=              2.8246    Y=              0.6133    Z=             -0.5294  Tot=              2.9384
 Quadrupole moment (field-independent basis, Debye-Ang):
   XX=            -34.2929   YY=            -30.5127   ZZ=            -30.5198
   XY=             -0.8487   XZ=             -0.0908   YZ=              0.5978

  Exact polarizability:      54.875      -1.606      44.801       1.373      -0.302      39.372
 Approx polarizability:      75.199      -2.489      57.907       3.031      -2.203      57.382

                      1                      2                      3
                      A                      A                      A
 Frequencies --     99.0371               199.7081               237.6007
 Red. masses --      6.7717                 1.0340                 1.0696
 Frc consts  --      0.0391                 0.0243                 0.0356
 IR Inten    --      0.4303                 0.0179                 0.1268

                      4                      5                      6
                      A                      A                      A
 Frequencies --    302.5951               343.0845               449.4491
 Red. masses --      3.5840                 2.3550                 2.5364
 Frc consts  --      0.1934                 0.1633                 0.3019
 IR Inten    --      2.9592                 1.2102                 1.5311

                      7                      8                      9
                      A                      A                      A
 Frequencies --    521.4669               791.9765               886.3322
 Red. masses --      4.4054                 3.1254                 2.6857
 Frc consts  --      0.7058                 1.1550                 1.2431
 IR Inten    --      8.2514                 4.6200                 5.5122

                     10                     11                     12
                      A                      A                      A
 Frequencies --    939.9622               950.6077              1123.5137
 Red. masses --      1.2495                 1.3310                 1.8189
 Frc consts  --      0.6505                 0.7086                 1.3528
 IR Inten    --      0.5696                 0.0919                21.1306

                     13                     14                     15
                      A                      A                      A
 Frequencies --   1153.2153              1195.9904              1204.7216
 Red. masses --      2.3492                 2.7776                 3.2452
 Frc consts  --      1.8408                 2.3409                 2.7750
 IR Inten    --      7.7167                 3.6701                11.4017

                     16                     17                     18
                      A                      A                      A
 Frequencies --   1344.1207              1368.1951              1403.3738
 Red. masses --      1.2214                 1.3874                 1.3003
 Frc consts  --      1.3001                 1.5302                 1.5088
 IR Inten    --     16.5695                 4.3255                17.4160

                     19                     20                     21
                      A                      A                      A
 Frequencies --   1421.4108              1482.8878              1488.9614
 Red. masses --      1.2557                 1.0545                 1.0441
 Frc consts  --      1.4948                 1.3662                 1.3639
 IR Inten    --      8.5699                 1.3122                 0.3749

                     22                     23                     24
                      A                      A                      A
 Frequencies --   1494.3705              1511.5021              3036.2506
 Red. masses --      1.0464                 1.0505                 1.0352
 Frc consts  --      1.3768                 1.4141                 5.6229
 IR Inten    --      6.2836                10.5038                10.8016

                     25                     26                     27
                      A                      A                      A
 Frequencies --   3040.9106              3062.2310              3099.6125
 Red. masses --      1.0357                 1.0858                 1.1022
 Frc consts  --      5.6427                 5.9987                 6.2392
 IR Inten    --     11.8318                 5.9736                 3.9591

                     28                     29                     30
                      A                      A                      A
 Frequencies --   3109.6361              3112.3951              3120.3661
 Red. masses --      1.1007                 1.1025                 1.1016
 Frc consts  --      6.2713                 6.2922                 6.3195
 IR Inten    --     35.6673                18.9044                11.4956

 - Thermochemistry -
 -------------------
 Temperature   298.150 Kelvin.  Pressure   1.00000 Atm.
 Atom     1 has atomic number  6 and mass  12.00000

 Molecular mass:    75.04460 amu.
 Principal axes and moments of inertia in atomic units:
                           1         2         3
     Eigenvalues --   227.82286 445.34321 611.21496
           X            0.99929  -0.03764   0.00324
           Y            0.03760   0.99920   0.01374
           Z           -0.00375  -0.01361   0.99990
 This molecule is an asymmetric top.
 Rotational symmetry number  1.
 Rotational temperatures (Kelvin)      0.38018     0.19449     0.14171
 Rotational constants (GHZ):           7.92169     4.05247     2.95271
 Zero-point vibrational energy     260160.8 (Joules/Mol)
                                   62.17992 (Kcal/Mol)
 Warning -- explicit consideration of   7 degrees of freedom as
           vibrations may cause significant error
 Vibrational temperatures:    142.49   287.34   341.85   435.37   493.62
          (Kelvin)            646.66   750.27  1139.48  1275.23  1352.40
                             1367.71  1616.49  1659.22  1720.76  1733.33
                             1933.89  1968.53  2019.14  2045.09  2133.54
                             2142.28  2150.07  2174.71  4368.49  4375.19
                             4405.87  4459.65  4474.07  4478.04  4489.51

 Zero-point correction=                           0.099090 (Hartree/Particle)
 Thermal correction to Energy=                    0.105340
 Thermal correction to Enthalpy=                  0.106285
 Thermal correction to Gibbs Free Energy=         0.069122
 Sum of electronic and zero-point Energies=           -268.861754
 Sum of electronic and thermal Energies=              -268.855504
 Sum of electronic and thermal Enthalpies=            -268.854560
 Sum of electronic and thermal Free Energies=         -268.891722

                     E (Thermal)             CV                S
                      KCal/Mol        Cal/Mol-Kelvin    Cal/Mol-Kelvin
 Total                   66.102             21.085             78.214
 Electronic               0.000              0.000              1.377
 Translational            0.889              2.981             38.862
 Rotational               0.889              2.981             25.631
 Vibrational             64.325             15.124             12.344
 Vibration     1          0.604              1.950              3.473
 Vibration     2          0.638              1.840              2.136
 Vibration     3          0.656              1.783              1.821
 Vibration     4          0.694              1.669              1.403
 Vibration     5          0.722              1.589              1.198
 Vibration     6          0.808              1.362              0.797
 Vibration     7          0.876              1.202              0.607

 Optimization completed.
    -- Stationary point found.
 Normal termination of Gaussian 16 at Thu Apr  7 11:32:35 2022.
