 Gaussian 16, Revision C.01,
 Gaussian 16:  ES64L-G16RevC.01  3-Jul-2019

 ----------------------------------------------------------------------
 #p B3LYP/cc-PVTZ scf(verytight, maxcycles=1000) opt(calcfc, maxcyc=100
 0) freq(hpmodes) int(grid=ultrafine)
 ----------------------------------------------------------------------

 ------
 Mol_03
 ------
 Symbolic Z-matrix:
 Charge =  0 Multiplicity = 2

 SCF Done:  E(UB3LYP) =  -268.901220034     A.U. after   14 cycles
 SCF Done:  E(UB3LYP) =  -268.920187683     A.U. after   13 cycles
 SCF Done:  E(UB3LYP) =  -268.924468517     A.U. after   13 cycles
 SCF Done:  E(UB3LYP) =  -268.925205924     A.U. after   13 cycles
 SCF Done:  E(UB3LYP) =  -268.925493931     A.U. after   13 cycles
 SCF Done:  E(UB3LYP) =  -268.925589501     A.U. after   12 cycles
 SCF Done:  E(UB3LYP) =  -268.925615543     A.U. after   11 cycles
 SCF Done:  E(UB3LYP) =  -268.925623072     A.U. after   10 cycles
 SCF Done:  E(UB3LYP) =  -268.925628110     A.U. after   11 cycles
 SCF Done:  E(UB3LYP) =  -268.925629637     A.U. after    8 cycles
 SCF Done:  E(UB3LYP) =  -268.925629921     A.U. after    8 cycles
 Optimization completed.
    -- Stationary point found.
 Normal termination of Gaussian 16 at Thu Apr  7 11:43:02 2022.

 -------------------------------------------------------------------
 #P Geom=AllCheck Guess=TCheck SCRF=Check GenChk UB3LYP/CC-pVTZ Freq
 -------------------------------------------------------------------

 Structure from the checkpoint file:  "Mol_03.chk"
 ------
 Mol_03
 ------
 Charge =  0 Multiplicity = 2

                         Standard orientation:
 ---------------------------------------------------------------------
 Center     Atomic      Atomic             Coordinates (Angstroms)
 Number     Number       Type             X           Y           Z
 ---------------------------------------------------------------------
      1          6           0        1.690585   -0.689674    0.023809
      2          6           0        0.415876    0.074284   -0.336531
      3          6           0        0.439022    1.491088    0.110637
      4          1           0        1.608619   -1.728445   -0.295243
      5          1           0        1.860184   -0.664931    1.100346
      6          1           0        2.547635   -0.234432   -0.470990
      7          1           0        0.529234    1.713122    1.166125
      8          1           0        0.388342    2.311646   -0.589110
      9          8           0       -0.628624   -0.676243    0.322328
     10          8           0       -1.905372   -0.206703   -0.174531
     11          1           0        0.238717    0.015634   -1.412699
     12          1           0       -2.173658    0.396793    0.531707
 ---------------------------------------------------------------------

 SCF Done:  E(UB3LYP) =  -268.925629921     A.U. after    1 cycles

 The electronic state is 2-A.
 Alpha  occ. eigenvalues --  -19.18369 -19.17740 -10.23605 -10.19298 -10.17526
 Alpha  occ. eigenvalues --   -1.11644  -0.91655  -0.77325  -0.69786  -0.59061
 Alpha  occ. eigenvalues --   -0.54183  -0.47571  -0.46323  -0.44806  -0.41894
 Alpha  occ. eigenvalues --   -0.39787  -0.37547  -0.36119  -0.29781  -0.28295
 Alpha  occ. eigenvalues --   -0.23137
 Alpha virt. eigenvalues --    0.01420   0.03569   0.07252   0.07476   0.07882
 Alpha virt. eigenvalues --    0.10878   0.11562   0.12598   0.15080   0.18097
 Alpha virt. eigenvalues --    0.21809   0.24958   0.26055   0.30395   0.30884

  Beta  occ. eigenvalues --  -19.18218 -19.17736 -10.23689 -10.17917 -10.17436
  Beta  occ. eigenvalues --   -1.11457  -0.91430  -0.76259  -0.67804  -0.58142
  Beta  occ. eigenvalues --   -0.54022  -0.47084  -0.46046  -0.44093  -0.41362
  Beta  occ. eigenvalues --   -0.39618  -0.37165  -0.35738  -0.29711  -0.27751
  Beta virt. eigenvalues --   -0.08262   0.01521   0.03737   0.07380   0.07909
  Beta virt. eigenvalues --    0.08420   0.10918   0.11718   0.12747   0.15486
  Beta virt. eigenvalues --    0.18417   0.21989   0.25288   0.26775   0.30897

 Mulliken charges and spin densities:
               1          2
     1  C   -0.285753   0.023652
     2  C    0.184738  -0.040740
     3  C   -0.312470   1.024188
     4  H    0.108544   0.010507
     5  H    0.095222   0.000868
     6  H    0.095617   0.000477
     7  H    0.119472  -0.029186
     8  H    0.128036  -0.031046
     9  O   -0.197894   0.036382
    10  O   -0.236180   0.000847
    11  H    0.074398   0.000348
    12  H    0.226270   0.003704
 Sum of Mulliken charges =  -0.00000   1.00000

 Dipole moment (field-independent basis, Debye):
    X=              1.0491    Y=              1.6478    Z=              0.3624  Tot=              1.9868
 Quadrupole moment (field-independent basis, Debye-Ang):
   XX=            -30.6052   YY=            -31.4744   ZZ=            -30.2296
   XY=             -3.1026   XZ=             -2.4143   YZ=              0.8188

  Exact polarizability:      53.633      -2.697      46.990      -0.033       0.773      40.916
 Approx polarizability:      70.064      -2.964      62.258       1.066      -0.123      59.032

                      1                      2                      3
                      A                      A                      A
 Frequencies --     83.4052               136.1081               217.1285
 Red. masses --      1.0300                 4.4939                 1.0637
 Frc consts  --      0.0042                 0.0491                 0.0295
 IR Inten    --      4.4088                 6.6638                 1.0895

                      4                      5                      6
                      A                      A                      A
 Frequencies --    232.7340               279.5208               336.2052
 Red. masses --      1.0957                 3.3198                 2.1035
 Frc consts  --      0.0350                 0.1528                 0.1401
 IR Inten    --    103.0261                21.4566                 3.4070

                      7                      8                      9
                      A                      A                      A
 Frequencies --    456.4842               482.5275               583.7069
 Red. masses --      2.1975                 2.7581                 2.2253
 Frc consts  --      0.2698                 0.3784                 0.4467
 IR Inten    --      9.3838                 2.5683                35.1093

                     10                     11                     12
                      A                      A                      A
 Frequencies --    829.8867               906.5006               926.8397
 Red. masses --      2.7295                 2.3680                 1.3331
 Frc consts  --      1.1076                 1.1465                 0.6747
 IR Inten    --     10.7253                11.9913                 0.4851

                     13                     14                     15
                      A                      A                      A
 Frequencies --    947.8389              1035.7493              1154.3802
 Red. masses --      5.9552                 2.6357                 2.1273
 Frc consts  --      3.1522                 1.6659                 1.6702
 IR Inten    --      2.0328                18.2383                24.0409

                     16                     17                     18
                      A                      A                      A
 Frequencies --   1175.6436              1319.9764              1366.9110
 Red. masses --      2.1363                 1.2453                 1.1172
 Frc consts  --      1.7397                 1.2784                 1.2298
 IR Inten    --      2.1278                 9.4999                49.1422

                     19                     20                     21
                      A                      A                      A
 Frequencies --   1378.9031              1398.3131              1458.5600
 Red. masses --      1.2424                 1.2271                 1.1826
 Frc consts  --      1.3919                 1.4137                 1.4823
 IR Inten    --      6.7612                 4.0512                 4.9530

                     22                     23                     24
                      A                      A                      A
 Frequencies --   1484.4061              1496.7041              3037.0159
 Red. masses --      1.0503                 1.0584                 1.0685
 Frc consts  --      1.3635                 1.3970                 5.8067
 IR Inten    --      4.5346                 3.3729                16.1623

                     25                     26                     27
                      A                      A                      A
 Frequencies --   3038.9094              3108.8988              3112.6193
 Red. masses --      1.0488                 1.1028                 1.1021
 Frc consts  --      5.7068                 6.2801                 6.2913
 IR Inten    --     17.8327                22.2106                14.6942

                     28                     29                     30
                      A                      A                      A
 Frequencies --   3135.6699              3246.0430              3747.7208
 Red. masses --      1.0512                 1.1184                 1.0685
 Frc consts  --      6.0896                 6.9431                 8.8420
 IR Inten    --      8.1113                 8.2335                26.6632

 - Thermochemistry -
 -------------------
 Temperature   298.150 Kelvin.  Pressure   1.00000 Atm.
 Atom     1 has atomic number  6 and mass  12.00000

 Molecular mass:    75.04460 amu.
 Principal axes and moments of inertia in atomic units:
                           1         2         3
     Eigenvalues --   219.43531 464.29686 618.07597
           X            0.99866  -0.05119  -0.00703
           Y            0.05130   0.99854   0.01695
           Z            0.00615  -0.01729   0.99983
 This molecule is an asymmetric top.
 Rotational symmetry number  1.
 Rotational temperatures (Kelvin)      0.39471     0.18655     0.14013
 Rotational constants (GHZ):           8.22448     3.88704     2.91993
 Zero-point vibrational energy     251905.5 (Joules/Mol)
                                   60.20686 (Kcal/Mol)
 Warning -- explicit consideration of   9 degrees of freedom as
           vibrations may cause significant error
 Vibrational temperatures:    120.00   195.83   312.40   334.85   402.17
          (Kelvin)            483.72   656.78   694.25   839.82  1194.02
                             1304.25  1333.52  1363.73  1490.21  1660.90
                             1691.49  1899.15  1966.68  1983.93  2011.86
                             2098.54  2135.73  2153.42  4369.59  4372.31
                             4473.01  4478.36  4511.53  4670.33  5392.13

 Zero-point correction=                           0.095946 (Hartree/Particle)
 Thermal correction to Energy=                    0.103084
 Thermal correction to Enthalpy=                  0.104029
 Thermal correction to Gibbs Free Energy=         0.065078
 Sum of electronic and zero-point Energies=           -268.829684
 Sum of electronic and thermal Energies=              -268.822545
 Sum of electronic and thermal Enthalpies=            -268.821601
 Sum of electronic and thermal Free Energies=         -268.860552

                     E (Thermal)             CV                S
                      KCal/Mol        Cal/Mol-Kelvin    Cal/Mol-Kelvin
 Total                   64.686             23.975             81.978
 Electronic               0.000              0.000              1.377
 Translational            0.889              2.981             38.862
 Rotational               0.889              2.981             25.646
 Vibrational             62.909             18.013             16.092
 Vibration     1          0.600              1.961              3.809
 Vibration     2          0.614              1.917              2.858
 Vibration     3          0.646              1.815              1.983
 Vibration     4          0.653              1.791              1.858
 Vibration     5          0.680              1.711              1.537
 Vibration     6          0.717              1.603              1.230
 Vibration     7          0.815              1.347              0.776
 Vibration     8          0.839              1.289              0.703
 Vibration     9          0.941              1.067              0.479

                           ! Non-Optimized Parameters !
 Normal termination of Gaussian 16 at Thu Apr  7 11:46:17 2022.
