 Gaussian 16, Revision C.01,
 Gaussian 16:  ES64L-G16RevC.01  3-Jul-2019

 ----------------------------------------------------------------------
 #p B3LYP/cc-PVTZ scf(verytight, maxcycles=1000) opt(calcfc, maxcyc=100
 0) freq(hpmodes) int(grid=ultrafine)
 ----------------------------------------------------------------------

 ------
 Mol_05
 ------
 Symbolic Z-matrix:
 Charge =  0 Multiplicity = 1

 SCF Done:  E(RB3LYP) =  -117.912406277     A.U. after   12 cycles
 SCF Done:  E(RB3LYP) =  -117.946049320     A.U. after   11 cycles
 SCF Done:  E(RB3LYP) =  -117.952987656     A.U. after   12 cycles
 SCF Done:  E(RB3LYP) =  -117.955194045     A.U. after   12 cycles
 SCF Done:  E(RB3LYP) =  -117.797043372     A.U. after   12 cycles
 SCF Done:  E(RB3LYP) =  -117.956601682     A.U. after   10 cycles
 SCF Done:  E(RB3LYP) =  -117.956877068     A.U. after   10 cycles
 SCF Done:  E(RB3LYP) =  -117.956895943     A.U. after    8 cycles
 SCF Done:  E(RB3LYP) =  -117.956898375     A.U. after    7 cycles
 SCF Done:  E(RB3LYP) =  -117.956898771     A.U. after    6 cycles
 Optimization completed.
    -- Stationary point found.
 Normal termination of Gaussian 16 at Thu Apr  7 11:51:56 2022.

 -------------------------------------------------------------------
 #P Geom=AllCheck Guess=TCheck SCRF=Check GenChk RB3LYP/CC-pVTZ Freq
 -------------------------------------------------------------------

 Structure from the checkpoint file:  "Mol_05.chk"
 ------
 Mol_05
 ------
 Charge =  0 Multiplicity = 1

                         Standard orientation:
 ---------------------------------------------------------------------
 Center     Atomic      Atomic             Coordinates (Angstroms)
 Number     Number       Type             X           Y           Z
 ---------------------------------------------------------------------
      1          6           0        1.230760   -0.161964    0.000017
      2          6           0       -0.134285    0.452265   -0.000173
      3          6           0       -1.277679   -0.219887   -0.000007
      4          1           0        1.802769    0.153368    0.876702
      5          1           0        1.803971    0.153838   -0.875707
      6          1           0        1.179896   -1.250881   -0.000295
      7          1           0       -0.166820    1.538156    0.000026
      8          1           0       -1.299008   -1.303499   -0.000161
      9          1           0       -2.233587    0.286535    0.000411
 ---------------------------------------------------------------------

 SCF Done:  E(RB3LYP) =  -117.956898771     A.U. after    1 cycles

 The electronic state is 1-A.
 Alpha  occ. eigenvalues --  -10.17798 -10.16993 -10.16187  -0.78944  -0.68833
 Alpha  occ. eigenvalues --   -0.55626  -0.47014  -0.42496  -0.41593  -0.37539
 Alpha  occ. eigenvalues --   -0.34828  -0.26189
 Alpha virt. eigenvalues --    0.01053   0.04592   0.07337   0.08051   0.11094
 Alpha virt. eigenvalues --    0.11731   0.13361   0.19058   0.24998   0.25349
 Alpha virt. eigenvalues --    0.27121   0.29804   0.31893   0.32632   0.36084

 Mulliken charges:
               1
     1  C   -0.265719
     2  C   -0.067523
     3  C   -0.282511
     4  H    0.097961
     5  H    0.097950
     6  H    0.093480
     7  H    0.112114
     8  H    0.104536
     9  H    0.109711
 Sum of Mulliken charges =  -0.00000

 Dipole moment (field-independent basis, Debye):
    X=              0.3938    Y=              0.0759    Z=              0.0006  Tot=              0.4011
 Quadrupole moment (field-independent basis, Debye-Ang):
   XX=            -19.4240   YY=            -19.1448   ZZ=            -21.8482
   XY=              0.1450   XZ=             -0.0009   YZ=              0.0006

  Exact polarizability:      48.824       3.899      36.104      -0.002       0.001      26.284
 Approx polarizability:      66.255       9.801      51.298      -0.004       0.001      37.277

                      1                      2                      3
                      A                      A                      A
 Frequencies --    205.3893               426.3125               592.5848
 Red. masses --      1.1592                 1.9477                 1.1943
 Frc consts  --      0.0288                 0.2086                 0.2471
 IR Inten    --      0.3991                 1.0604                11.7942

                      4                      5                      6
                      A                      A                      A
 Frequencies --    924.6092               947.7973               950.8368
 Red. masses --      2.5110                 1.3220                 1.1467
 Frc consts  --      1.2648                 0.6997                 0.6108
 IR Inten    --      3.2136                44.2259                 3.3884

                      7                      8                      9
                      A                      A                      A
 Frequencies --   1030.2464              1074.7583              1193.2901
 Red. masses --      1.0537                 1.5550                 1.7984
 Frc consts  --      0.6589                 1.0583                 1.5088
 IR Inten    --     10.3480                 2.0805                 0.3171

                     10                     11                     12
                      A                      A                      A
 Frequencies --   1332.4547              1411.1422              1453.1586
 Red. masses --      1.2444                 1.2165                 1.1994
 Frc consts  --      1.3017                 1.4272                 1.4922
 IR Inten    --      0.0752                 1.7889                 0.7700

                     13                     14                     15
                      A                      A                      A
 Frequencies --   1480.3100              1495.1727              1713.2537
 Red. masses --      1.0446                 1.0599                 4.4294
 Frc consts  --      1.3486                 1.3960                 7.6601
 IR Inten    --      6.6239                14.2183                14.5295

                     16                     17                     18
                      A                      A                      A
 Frequencies --   3014.3956              3055.4048              3091.0867
 Red. masses --      1.0366                 1.0990                 1.0985
 Frc consts  --      5.5497                 6.0446                 6.1839
 IR Inten    --     24.4496                20.7057                10.6161

                     19                     20                     21
                      A                      A                      A
 Frequencies --   3122.4458              3129.0737              3209.1532
 Red. masses --      1.0729                 1.0777                 1.1149
 Frc consts  --      6.1629                 6.2169                 6.7651
 IR Inten    --     31.1830                 3.4566                18.9838

 - Thermochemistry -
 -------------------
 Temperature   298.150 Kelvin.  Pressure   1.00000 Atm.
 Atom     1 has atomic number  6 and mass  12.00000

 Molecular mass:    42.04695 amu.
 Principal axes and moments of inertia in atomic units:
                           1         2         3
     Eigenvalues --    38.19791 193.61700 220.76257
           X            1.00000  -0.00310  -0.00001
           Y            0.00310   1.00000   0.00006
           Z            0.00001  -0.00006   1.00000
 This molecule is an asymmetric top.
 Rotational symmetry number  1.
 Rotational temperatures (Kelvin)      2.26750     0.44735     0.39234
 Rotational constants (GHZ):          47.24712     9.32119     8.17503
 Zero-point vibrational energy     208466.5 (Joules/Mol)
                                   49.82469 (Kcal/Mol)
 Warning -- explicit consideration of   3 degrees of freedom as
           vibrations may cause significant error
 Vibrational temperatures:    295.51   613.37   852.60  1330.31  1363.67
          (Kelvin)           1368.04  1482.29  1546.34  1716.88  1917.11
                             2030.32  2090.77  2129.84  2151.22  2464.99
                             4337.04  4396.05  4447.38  4492.50  4502.04
                             4617.26

 Zero-point correction=                           0.079401 (Hartree/Particle)
 Thermal correction to Energy=                    0.083486
 Thermal correction to Enthalpy=                  0.084430
 Thermal correction to Gibbs Free Energy=         0.054399
 Sum of electronic and zero-point Energies=           -117.877498
 Sum of electronic and thermal Energies=              -117.873413
 Sum of electronic and thermal Enthalpies=            -117.872469
 Sum of electronic and thermal Free Energies=         -117.902500

                     E (Thermal)             CV                S
                      KCal/Mol        Cal/Mol-Kelvin    Cal/Mol-Kelvin
 Total                   52.388             12.966             63.206
 Electronic               0.000              0.000              0.000
 Translational            0.889              2.981             37.135
 Rotational               0.889              2.981             22.017
 Vibrational             50.611              7.004              4.053
 Vibration     1          0.640              1.832              2.084
 Vibration     2          0.788              1.413              0.871
 Vibration     3          0.950              1.048              0.463

 Optimization completed.
    -- Stationary point found.
 Normal termination of Gaussian 16 at Thu Apr  7 11:52:43 2022.
