 Gaussian 16, Revision C.01,
 Gaussian 16:  ES64L-G16RevC.01  3-Jul-2019

 ----------------------------------------------------------------------
 #p B3LYP/cc-PVTZ scf(verytight, maxcycles=1000) opt(calcfc, maxcyc=100
 0) freq(hpmodes) int(grid=ultrafine)
 ----------------------------------------------------------------------

 ------
 Mol_04
 ------
 Symbolic Z-matrix:
 Charge =  0 Multiplicity = 1

 SCF Done:  E(RB3LYP) =  -193.174221864     A.U. after   12 cycles
 SCF Done:  E(RB3LYP) =  -193.184327767     A.U. after   11 cycles
 SCF Done:  E(RB3LYP) =  -193.184802553     A.U. after   10 cycles
 SCF Done:  E(RB3LYP) =  -193.184809433     A.U. after    7 cycles
 Optimization completed.
    -- Stationary point found.
 Normal termination of Gaussian 16 at Thu Apr  7 11:48:24 2022.

 -------------------------------------------------------------------
 #P Geom=AllCheck Guess=TCheck SCRF=Check GenChk RB3LYP/CC-pVTZ Freq
 -------------------------------------------------------------------

 Structure from the checkpoint file:  "Mol_04.chk"
 ------
 Mol_04
 ------
 Charge =  0 Multiplicity = 1

                         Standard orientation:
 ---------------------------------------------------------------------
 Center     Atomic      Atomic             Coordinates (Angstroms)
 Number     Number       Type             X           Y           Z
 ---------------------------------------------------------------------
      1          6           0       -1.506883    0.098067   -0.148522
      2          6           0       -0.152156   -0.036390    0.486086
      3          6           0        1.039267    0.615939   -0.060866
      4          1           0       -2.078321   -0.824652   -0.035345
      5          1           0       -1.413569    0.313775   -1.212601
      6          1           0       -2.073128    0.903919    0.322991
      7          8           0        0.827897   -0.788134   -0.239781
      8          1           0       -0.154185   -0.249774    1.552381
      9          1           0        1.863894    0.881375    0.592649
     10          1           0        0.950765    1.214734   -0.962017
 ---------------------------------------------------------------------

 SCF Done:  E(RB3LYP) =  -193.184809433     A.U. after    1 cycles

 The electronic state is 1-A.
 Alpha  occ. eigenvalues --  -19.13710 -10.23181 -10.22309 -10.17353  -1.07207
 Alpha  occ. eigenvalues --   -0.75086  -0.66427  -0.59971  -0.51144  -0.47269
 Alpha  occ. eigenvalues --   -0.43128  -0.40870  -0.37963  -0.37149  -0.30685
 Alpha  occ. eigenvalues --   -0.27382
 Alpha virt. eigenvalues --    0.04257   0.06753   0.06987   0.08437   0.10556
 Alpha virt. eigenvalues --    0.10793   0.11805   0.12685   0.17818   0.23611
 Alpha virt. eigenvalues --    0.24817   0.26634   0.29808   0.32241   0.34407

 Mulliken charges:
               1
     1  C   -0.272511
     2  C    0.086790
     3  C   -0.046332
     4  H    0.102064
     5  H    0.098040
     6  H    0.087614
     7  O   -0.317072
     8  H    0.094198
     9  H    0.087450
    10  H    0.079759
 Sum of Mulliken charges =  -0.00000

 Dipole moment (field-independent basis, Debye):
    X=             -0.8310    Y=              1.6260    Z=              0.6607  Tot=              1.9419
 Quadrupole moment (field-independent basis, Debye-Ang):
   XX=            -24.5304   YY=            -26.3673   ZZ=            -24.3260
   XY=              2.2453   XZ=              0.3796   YZ=             -1.0622

  Exact polarizability:      44.457       3.062      34.977      -0.817      -1.318      35.621
 Approx polarizability:      55.993       2.592      52.543      -3.393      -0.302      49.843

                      1                      2                      3
                      A                      A                      A
 Frequencies --    206.0392               366.6399               410.5318
 Red. masses --      1.0914                 2.3297                 2.4404
 Frc consts  --      0.0273                 0.1845                 0.2423
 IR Inten    --      0.4524                 3.6311                 4.5750

                      4                      5                      6
                      A                      A                      A
 Frequencies --    771.8821               844.8421               907.5872
 Red. masses --      3.6022                 3.1306                 1.2790
 Frc consts  --      1.2645                 1.3165                 0.6207
 IR Inten    --      7.1684                40.6606                 2.5379

                      7                      8                      9
                      A                      A                      A
 Frequencies --    974.0105              1042.0992              1130.0974
 Red. masses --      2.4241                 1.1798                 1.4703
 Frc consts  --      1.3549                 0.7549                 1.1063
 IR Inten    --     15.2777                 8.6555                 6.6164

                     10                     11                     12
                      A                      A                      A
 Frequencies --   1156.6732              1165.3168              1188.0691
 Red. masses --      1.3920                 1.6127                 1.5777
 Frc consts  --      1.0973                 1.2903                 1.3121
 IR Inten    --      1.1067                 3.9989                 0.6710

                     13                     14                     15
                      A                      A                      A
 Frequencies --   1294.1605              1407.0987              1439.9307
 Red. masses --      1.5871                 1.2486                 1.6186
 Frc consts  --      1.5661                 1.4566                 1.9774
 IR Inten    --      5.9101                 3.4788                21.7742

                     16                     17                     18
                      A                      A                      A
 Frequencies --   1483.5220              1497.8665              1531.5306
 Red. masses --      1.0498                 1.0557                 1.3666
 Frc consts  --      1.3612                 1.3955                 1.8886
 IR Inten    --      5.0729                 5.4937                 5.0329

                     19                     20                     21
                      A                      A                      A
 Frequencies --   3028.4132              3078.6941              3085.5630
 Red. masses --      1.0354                 1.0502                 1.1008
 Frc consts  --      5.5950                 5.8649                 6.1749
 IR Inten    --     18.1479                29.1329                22.2773

                     22                     23                     24
                      A                      A                      A
 Frequencies --   3087.1776              3109.8463              3161.6612
 Red. masses --      1.0897                 1.0998                 1.1203
 Frc consts  --      6.1190                 6.2666                 6.5979
 IR Inten    --      8.9974                38.1932                31.9685

 - Thermochemistry -
 -------------------
 Temperature   298.150 Kelvin.  Pressure   1.00000 Atm.
 Atom     1 has atomic number  6 and mass  12.00000

 Molecular mass:    58.04186 amu.
 Principal axes and moments of inertia in atomic units:
                           1         2         3
     Eigenvalues --    99.02336 270.63594 303.73297
           X            0.99884   0.04595   0.01405
           Y           -0.04409   0.99270  -0.11225
           Z           -0.01911   0.11150   0.99358
 This molecule is an asymmetric top.
 Rotational symmetry number  1.
 Rotational temperatures (Kelvin)      0.87468     0.32004     0.28516
 Rotational constants (GHZ):          18.22541     6.66852     5.94187
 Zero-point vibrational energy     223517.8 (Joules/Mol)
                                   53.42203 (Kcal/Mol)
 Warning -- explicit consideration of   3 degrees of freedom as
           vibrations may cause significant error
 Vibrational temperatures:    296.44   527.51   590.66  1110.57  1215.54
          (Kelvin)           1305.82  1401.38  1499.35  1625.96  1664.19
                             1676.63  1709.37  1862.01  2024.50  2071.74
                             2134.46  2155.10  2203.53  4357.21  4429.55
                             4439.44  4441.76  4474.38  4548.93

 Zero-point correction=                           0.085133 (Hartree/Particle)
 Thermal correction to Energy=                    0.089556
 Thermal correction to Enthalpy=                  0.090500
 Thermal correction to Gibbs Free Energy=         0.058751
 Sum of electronic and zero-point Energies=           -193.099676
 Sum of electronic and thermal Energies=              -193.095253
 Sum of electronic and thermal Enthalpies=            -193.094309
 Sum of electronic and thermal Free Energies=         -193.126058

                     E (Thermal)             CV                S
                      KCal/Mol        Cal/Mol-Kelvin    Cal/Mol-Kelvin
 Total                   56.197             14.789             66.821
 Electronic               0.000              0.000              0.000
 Translational            0.889              2.981             38.096
 Rotational               0.889              2.981             23.613
 Vibrational             54.420              8.828              5.112
 Vibration     1          0.641              1.831              2.078
 Vibration     2          0.740              1.541              1.094
 Vibration     3          0.775              1.447              0.925

 Optimization completed.
    -- Stationary point found.
 Normal termination of Gaussian 16 at Thu Apr  7 11:49:42 2022.
