 Gaussian 16, Revision B.01,
 Gaussian 16:  ES64L-G16RevB.01 20-Dec-2017

 --------------------------------------------------
 # opt=(calcfc,ts,noeigentest) freq cc-pvtz+d B3LYP
 --------------------------------------------------

 --------------------------------------
 RisopO2-concerted-OOH-elim-TS3-b3lyp-c
 --------------------------------------
 Symbolic Z-matrix:
 Charge =  0 Multiplicity = 2

 SCF Done:  E(UB3LYP) =  -268.912460989     A.U. after   17 cycles
 SCF Done:  E(UB3LYP) =  -268.913544725     A.U. after   15 cycles
 SCF Done:  E(UB3LYP) =  -268.913579925     A.U. after   13 cycles
 SCF Done:  E(UB3LYP) =  -268.913581231     A.U. after   11 cycles
 Optimization completed.
    -- Stationary point found.
 Normal termination of Gaussian 16 at Tue Mar 15 22:28:24 2022.

 ---------------------------------------------------------------------
 #N Geom=AllCheck Guess=TCheck SCRF=Check GenChk UB3LYP/CC-pVTZ+d Freq
 ---------------------------------------------------------------------

 Structure from the checkpoint file:  "RisopO2-concerted-OOH-elim-TS3-b3lyp-c.chk"
 --------------------------------------
 RisopO2-concerted-OOH-elim-TS3-b3lyp-c
 --------------------------------------
 Charge =  0 Multiplicity = 2

                         Standard orientation:
 ---------------------------------------------------------------------
 Center     Atomic      Atomic             Coordinates (Angstroms)
 Number     Number       Type             X           Y           Z
 ---------------------------------------------------------------------
      1          6           0       -0.318352    1.405754   -0.045578
      2          1           0       -0.077361    2.213988    0.636823
      3          1           0       -0.660059    1.718665   -1.027834
      4          1           0        0.910852    0.914651   -0.306183
      5          6           0       -0.820927    0.225485    0.478778
      6          1           0       -0.755081    0.060857    1.546583
      7          6           0       -1.666571   -0.735539   -0.283845
      8          1           0       -1.534288   -0.620544   -1.359456
      9          1           0       -1.450086   -1.767406   -0.009176
     10          1           0       -2.722395   -0.552349   -0.056129
     11          8           0        1.794402   -0.002177   -0.295321
     12          8           0        1.096038   -0.915580    0.255227
 ---------------------------------------------------------------------

 SCF Done:  E(UB3LYP) =  -268.913581231     A.U. after    1 cycles

 The electronic state is 2-A.
 Alpha  occ. eigenvalues --  -19.21970 -19.20916 -10.22361 -10.18374 -10.17121
 Alpha  occ. eigenvalues --   -1.19687  -0.81418  -0.80581  -0.71030  -0.58019
 Alpha  occ. eigenvalues --   -0.53076  -0.49643  -0.48117  -0.47341  -0.43788
 Alpha  occ. eigenvalues --   -0.42408  -0.38894  -0.37138  -0.31250  -0.27105
 Alpha  occ. eigenvalues --   -0.26035
 Alpha virt. eigenvalues --   -0.04077   0.03803   0.06392   0.06809   0.09731
 Alpha virt. eigenvalues --    0.10971   0.11681   0.15004   0.17753   0.19329
 Alpha virt. eigenvalues --    0.21154   0.23464   0.25963   0.27410   0.27520

  Beta  occ. eigenvalues --  -19.20567 -19.19158 -10.22438 -10.18367 -10.17109
  Beta  occ. eigenvalues --   -1.16622  -0.81474  -0.76351  -0.70844  -0.58038
  Beta  occ. eigenvalues --   -0.51992  -0.48655  -0.45878  -0.43739  -0.42493
  Beta  occ. eigenvalues --   -0.39894  -0.38859  -0.37099  -0.30408  -0.24842
  Beta virt. eigenvalues --   -0.09627  -0.03860   0.03821   0.06408   0.06885
  Beta virt. eigenvalues --    0.09818   0.10962   0.11706   0.15744   0.17846
  Beta virt. eigenvalues --    0.20175   0.21478   0.23518   0.26155   0.27496

 Mulliken charges and spin densities:
               1          2
     1  C   -0.370075   0.006171
     2  H    0.115528  -0.000164
     3  H    0.108174   0.000113
     4  H    0.206991  -0.015578
     5  C   -0.000415  -0.052648
     6  H    0.141296   0.002005
     7  C   -0.264784   0.003862
     8  H    0.100728  -0.000622
     9  H    0.116255  -0.000954
    10  H    0.107716  -0.002266
    11  O   -0.103604   0.460409
    12  O   -0.157811   0.599672
 Sum of Mulliken charges =  -0.00000   1.00000

 Dipole moment (field-independent basis, Debye):
    X=             -2.3286    Y=              0.9568    Z=              0.1660  Tot=              2.5230
 Quadrupole moment (field-independent basis, Debye-Ang):
   XX=            -33.5882   YY=            -31.1178   ZZ=            -29.8408
   XY=              2.3417   XZ=              0.2494   YZ=              0.0945

  Exact polarizability:  63.143   0.807  53.267  -2.862  -2.367  40.239
 Approx polarizability: 105.278  -0.874  82.232 -12.176  -8.302  60.684

 ******    1 imaginary frequencies (negative Signs) ******

                      1                      2                      3
                      A                      A                      A
 Frequencies --  -1078.3680               149.4909               175.6899
 Red. masses --      1.2933                 3.3570                 1.4209
 Frc consts  --      0.8861                 0.0442                 0.0258
 IR Inten    --    255.5648                 0.6184                 0.6330

                      4                      5                      6
                      A                      A                      A
 Frequencies --    207.7079               365.7842               420.3225
 Red. masses --      2.7100                 3.1082                 2.0808
 Frc consts  --      0.0689                 0.2450                 0.2166
 IR Inten    --      9.0490                41.6936                 3.4692

                      7                      8                      9
                      A                      A                      A
 Frequencies --    508.3866               624.2410               636.7650
 Red. masses --      2.7566                 1.3232                 4.3724
 Frc consts  --      0.4198                 0.3038                 1.0445
 IR Inten    --     19.9902                 2.7385                 4.4983

                     10                     11                     12
                      A                      A                      A
 Frequencies --    894.9108               956.1438               962.3985
 Red. masses --      1.5060                 1.2871                 1.2717
 Frc consts  --      0.7106                 0.6933                 0.6940
 IR Inten    --     14.8890                 5.1197                 0.2911

                     13                     14                     15
                      A                      A                      A
 Frequencies --   1035.8341              1062.6771              1200.0591
 Red. masses --      1.2150                 1.5701                 1.7610
 Frc consts  --      0.7681                 1.0447                 1.4942
 IR Inten    --     13.8184                17.4908                 3.9097

                     16                     17                     18
                      A                      A                      A
 Frequencies --   1287.2995              1308.5527              1317.7436
 Red. masses --      1.2141                 1.5557                 2.9105
 Frc consts  --      1.1854                 1.5695                 2.9777
 IR Inten    --     14.0559                28.3757               172.6993

                     19                     20                     21
                      A                      A                      A
 Frequencies --   1406.7636              1442.8220              1476.7399
 Red. masses --      1.2133                 1.2603                 1.0478
 Frc consts  --      1.4147                 1.5458                 1.3463
 IR Inten    --      5.5636                10.5157                 6.7087

                     22                     23                     24
                      A                      A                      A
 Frequencies --   1488.8662              1571.5485              1599.6502
 Red. masses --      1.0700                 1.6269                 1.4174
 Frc consts  --      1.3975                 2.3673                 2.1370
 IR Inten    --      7.1996                40.3554                37.2191

                     25                     26                     27
                      A                      A                      A
 Frequencies --   3008.8532              3072.6314              3093.7832
 Red. masses --      1.0476                 1.0843                 1.0554
 Frc consts  --      5.5879                 6.0315                 5.9517
 IR Inten    --     14.4023                10.3073                 3.2449

                     28                     29                     30
                      A                      A                      A
 Frequencies --   3108.9174              3161.6502              3180.5679
 Red. masses --      1.1027                 1.0990                 1.1040
 Frc consts  --      6.2798                 6.4726                 6.5800
 IR Inten    --     11.0943                 2.0084                17.5695

 - Thermochemistry -
 -------------------
 Temperature   298.150 Kelvin.  Pressure   1.00000 Atm.
 Atom     1 has atomic number  6 and mass  12.00000

 Molecular mass:    75.04460 amu.
 Principal axes and moments of inertia in atomic units:
                           1         2         3
     Eigenvalues --   244.68698 496.12347 655.12424
           X            0.99805   0.06098   0.01314
           Y           -0.06109   0.99809   0.00862
           Z           -0.01259  -0.00940   0.99988
 This molecule is an asymmetric top.
 Rotational symmetry number  1.
 Rotational temperatures (Kelvin)      0.35398     0.17458     0.13221
 Rotational constants (GHZ):           7.37571     3.63769     2.75481
    1 imaginary frequencies ignored.
 Zero-point vibrational energy     243600.4 (Joules/Mol)
                                   58.22188 (Kcal/Mol)
 Warning -- explicit consideration of   6 degrees of freedom as
           vibrations may cause significant error
 Vibrational temperatures:    215.08   252.78   298.85   526.28   604.75
          (Kelvin)            731.45   898.14   916.16  1287.58  1375.68
                             1384.68  1490.33  1528.96  1726.62  1852.14
                             1882.72  1895.94  2024.02  2075.90  2124.70
                             2142.15  2261.11  2301.54  4329.07  4420.83
                             4451.26  4473.04  4548.91  4576.13

 Zero-point correction=                           0.092782 (Hartree/Particle)
 Thermal correction to Energy=                    0.098831
 Thermal correction to Enthalpy=                  0.099775
 Thermal correction to Gibbs Free Energy=         0.063013
 Sum of electronic and zero-point Energies=           -268.820799
 Sum of electronic and thermal Energies=              -268.814750
 Sum of electronic and thermal Enthalpies=            -268.813806
 Sum of electronic and thermal Free Energies=         -268.850568

                     E (Thermal)             CV                S
                      KCal/Mol        Cal/Mol-Kelvin    Cal/Mol-Kelvin
 Total                   62.017             20.818             77.373
 Electronic               0.000              0.000              1.377
 Translational            0.889              2.981             38.862
 Rotational               0.889              2.981             25.878
 Vibrational             60.240             14.857             11.255
 Vibration     1          0.618              1.903              2.679
 Vibration     2          0.628              1.872              2.374
 Vibration     3          0.641              1.829              2.064
 Vibration     4          0.739              1.543              1.097
 Vibration     5          0.783              1.426              0.891
 Vibration     6          0.864              1.231              0.637

 Optimization completed.
    -- Stationary point found.
 Normal termination of Gaussian 16 at Tue Mar 15 22:30:56 2022.
