 Gaussian 16, Revision B.01,
 Gaussian 16:  ES64L-G16RevB.01 20-Dec-2017

 ---------------------------------------------------
 # opt=(calcfc,ts,noeigentest) freq ub3lyp cc-pvtz+d
 ---------------------------------------------------

 ----------------------------
 QOOHisop-OOH-elim-TS-b3lyp-c
 ----------------------------
 Symbolic Z-matrix:
 Charge =  0 Multiplicity = 2

 SCF Done:  E(UB3LYP) =  -268.907603469     A.U. after   18 cycles
 SCF Done:  E(UB3LYP) =  -268.908060680     A.U. after   16 cycles
 SCF Done:  E(UB3LYP) =  -268.908079321     A.U. after   14 cycles
 SCF Done:  E(UB3LYP) =  -268.908080491     A.U. after   12 cycles
 Optimization completed.
    -- Stationary point found.
 Normal termination of Gaussian 16 at Tue Mar 15 23:24:10 2022.

 ---------------------------------------------------------------------
 #N Geom=AllCheck Guess=TCheck SCRF=Check GenChk UB3LYP/CC-pVTZ+d Freq
 ---------------------------------------------------------------------

 Structure from the checkpoint file:  "QOOHisop-OOH-elim-TS-b3lyp-c.chk"
 ----------------------------
 QOOHisop-OOH-elim-TS-b3lyp-c
 ----------------------------
 Charge =  0 Multiplicity = 2

                         Standard orientation:
 ---------------------------------------------------------------------
 Center     Atomic      Atomic             Coordinates (Angstroms)
 Number     Number       Type             X           Y           Z
 ---------------------------------------------------------------------
      1          6           0       -0.717212    1.454957   -0.119912
      2          1           0       -0.127007    2.256686    0.300522
      3          1           0       -1.260894    1.658666   -1.032845
      4          1           0        2.434326    0.474479   -0.368593
      5          6           0       -0.671273    0.181161    0.408776
      6          1           0       -0.244311    0.065758    1.396922
      7          6           0       -1.649450   -0.877960   -0.004827
      8          1           0       -1.939309   -0.761269   -1.049111
      9          1           0       -1.223661   -1.870435    0.131882
     10          1           0       -2.552731   -0.809223    0.605864
     11          8           0        2.023440   -0.157469    0.238085
     12          8           0        0.869209   -0.537982   -0.449193
 ---------------------------------------------------------------------

 SCF Done:  E(UB3LYP) =  -268.908080491     A.U. after    1 cycles

 The electronic state is 2-A.
 Alpha  occ. eigenvalues --  -19.18936 -19.18088 -10.21493 -10.18503 -10.17195
 Alpha  occ. eigenvalues --   -1.12242  -0.86126  -0.79248  -0.69875  -0.57664
 Alpha  occ. eigenvalues --   -0.52313  -0.47905  -0.45881  -0.44152  -0.42437
 Alpha  occ. eigenvalues --   -0.40039  -0.37990  -0.36288  -0.29646  -0.27950
 Alpha  occ. eigenvalues --   -0.22917
 Alpha virt. eigenvalues --    0.01072   0.03723   0.04511   0.07479   0.08133
 Alpha virt. eigenvalues --    0.09554   0.11510   0.11609   0.12991   0.18088
 Alpha virt. eigenvalues --    0.23808   0.25109   0.27546   0.29517   0.31673

  Beta  occ. eigenvalues --  -19.18685 -19.16615 -10.21712 -10.17661 -10.17177
  Beta  occ. eigenvalues --   -1.10729  -0.84134  -0.78149  -0.68888  -0.57111
  Beta  occ. eigenvalues --   -0.51616  -0.47548  -0.45248  -0.43078  -0.40254
  Beta  occ. eigenvalues --   -0.38871  -0.37776  -0.36052  -0.27162  -0.25564
  Beta virt. eigenvalues --   -0.10549   0.02222   0.04366   0.04914   0.07636
  Beta virt. eigenvalues --    0.08387   0.10361   0.11551   0.11704   0.13081
  Beta virt. eigenvalues --    0.18089   0.23854   0.25219   0.28064   0.30207

 Mulliken charges and spin densities:
               1          2
     1  C   -0.271647   0.602466
     2  H    0.120300  -0.018171
     3  H    0.111718  -0.017760
     4  H    0.229072  -0.000511
     5  C    0.058030  -0.124957
     6  H    0.133536   0.006744
     7  C   -0.275067   0.005344
     8  H    0.095187  -0.000304
     9  H    0.113298  -0.002236
    10  H    0.101784  -0.004086
    11  O   -0.195309   0.079599
    12  O   -0.220901   0.473872
 Sum of Mulliken charges =   0.00000   1.00000

 Dipole moment (field-independent basis, Debye):
    X=             -0.5790    Y=              1.4526    Z=             -0.2063  Tot=              1.5773
 Quadrupole moment (field-independent basis, Debye-Ang):
   XX=            -28.5245   YY=            -30.5433   ZZ=            -31.0303
   XY=              3.9346   XZ=             -1.3583   YZ=             -1.0645

  Exact polarizability:  72.178  -7.450  57.123  -0.195  -1.117  40.359
 Approx polarizability: 101.702 -19.507  85.985  -0.561   0.400  59.943

 ******    1 imaginary frequencies (negative Signs) ******

                      1                      2                      3
                      A                      A                      A
 Frequencies --   -502.0347                77.2151               144.3460
 Red. masses --      9.6669                 5.0330                 1.1793
 Frc consts  --      1.4355                 0.0177                 0.0145
 IR Inten    --     96.0728                 6.6245                 0.1954

                      4                      5                      6
                      A                      A                      A
 Frequencies --    199.9043               296.8304               319.6959
 Red. masses --      2.5610                 2.6483                 4.8480
 Frc consts  --      0.0603                 0.1375                 0.2919
 IR Inten    --      1.8054                 8.4272                 8.6530

                      7                      8                      9
                      A                      A                      A
 Frequencies --    417.2000               440.8612               520.7855
 Red. masses --      1.0897                 2.1236                 1.0925
 Frc consts  --      0.1117                 0.2432                 0.1746
 IR Inten    --    120.1685                 6.1215                 0.4989

                     10                     11                     12
                      A                      A                      A
 Frequencies --    810.8888               895.4051               942.9991
 Red. masses --      1.3825                 2.5255                 1.5225
 Frc consts  --      0.5356                 1.1930                 0.7977
 IR Inten    --     27.2070                28.8334                49.4036

                     13                     14                     15
                      A                      A                      A
 Frequencies --    956.5096              1024.0479              1082.1822
 Red. masses --      2.4997                 1.2841                 1.3033
 Frc consts  --      1.3475                 0.7934                 0.8993
 IR Inten    --    100.2530                20.8617                 5.3049

                     16                     17                     18
                      A                      A                      A
 Frequencies --   1191.7425              1268.2948              1380.4795
 Red. masses --      1.7664                 1.6075                 1.1094
 Frc consts  --      1.4781                 1.5235                 1.2457
 IR Inten    --      1.9444                 6.2826                36.7989

                     19                     20                     21
                      A                      A                      A
 Frequencies --   1401.4365              1434.1805              1479.7537
 Red. masses --      1.2184                 1.4248                 1.0473
 Frc consts  --      1.4099                 1.7266                 1.3512
 IR Inten    --      2.6940                15.9557                10.1028

                     22                     23                     24
                      A                      A                      A
 Frequencies --   1495.4993              1535.6085              3030.7300
 Red. masses --      1.0600                 1.8133                 1.0386
 Frc consts  --      1.3968                 2.5193                 5.6209
 IR Inten    --     12.1883                33.8082                13.9319

                     25                     26                     27
                      A                      A                      A
 Frequencies --   3087.3208              3114.3451              3138.0173
 Red. masses --      1.0966                 1.1011                 1.0531
 Frc consts  --      6.1584                 6.2925                 6.1101
 IR Inten    --     10.9818                 9.2555                 9.7772

                     28                     29                     30
                      A                      A                      A
 Frequencies --   3159.0095              3231.4749              3721.2202
 Red. masses --      1.0899                 1.1170                 1.0686
 Frc consts  --      6.4085                 6.8724                 8.7182
 IR Inten    --      8.5659                10.1670                44.4318

 - Thermochemistry -
 -------------------
 Temperature   298.150 Kelvin.  Pressure   1.00000 Atm.
 Atom     1 has atomic number  6 and mass  12.00000

 Molecular mass:    75.04460 amu.
 Principal axes and moments of inertia in atomic units:
                           1         2         3
     Eigenvalues --   227.88550 543.82016 692.77176
           X            0.99870   0.05086   0.00184
           Y           -0.05080   0.99840  -0.02478
           Z           -0.00310   0.02465   0.99969
 This molecule is an asymmetric top.
 Rotational symmetry number  1.
 Rotational temperatures (Kelvin)      0.38008     0.15927     0.12503
 Rotational constants (GHZ):           7.91951     3.31864     2.60510
    1 imaginary frequencies ignored.
 Zero-point vibrational energy     250007.5 (Joules/Mol)
                                   59.75322 (Kcal/Mol)
 Warning -- explicit consideration of   8 degrees of freedom as
           vibrations may cause significant error
 Vibrational temperatures:    111.10   207.68   287.62   427.07   459.97
          (Kelvin)            600.26   634.30   749.29  1166.69  1288.29
                             1356.77  1376.20  1473.38  1557.02  1714.65
                             1824.79  1986.20  2016.35  2063.47  2129.04
                             2151.69  2209.40  4360.54  4441.97  4480.85
                             4514.91  4545.11  4649.37  5354.01

 Zero-point correction=                           0.095223 (Hartree/Particle)
 Thermal correction to Energy=                    0.101989
 Thermal correction to Enthalpy=                  0.102933
 Thermal correction to Gibbs Free Energy=         0.064449
 Sum of electronic and zero-point Energies=           -268.812858
 Sum of electronic and thermal Energies=              -268.806091
 Sum of electronic and thermal Enthalpies=            -268.805147
 Sum of electronic and thermal Free Energies=         -268.843631

                     E (Thermal)             CV                S
                      KCal/Mol        Cal/Mol-Kelvin    Cal/Mol-Kelvin
 Total                   63.999             22.576             80.997
 Electronic               0.000              0.000              1.377
 Translational            0.889              2.981             38.862
 Rotational               0.889              2.981             25.954
 Vibrational             62.222             16.615             14.803
 Vibration     1          0.599              1.964              3.960
 Vibration     2          0.616              1.909              2.745
 Vibration     3          0.638              1.840              2.134
 Vibration     4          0.690              1.680              1.435
 Vibration     5          0.706              1.636              1.312
 Vibration     6          0.780              1.433              0.902
 Vibration     7          0.801              1.381              0.824
 Vibration     8          0.876              1.204              0.608

                           ! Non-Optimized Parameters !
 Normal termination of Gaussian 16 at Tue Mar 15 23:26:38 2022.
