 Gaussian 16, Revision B.01,
 Gaussian 16:  ES64L-G16RevB.01 20-Dec-2017

 ----------------------------------------------------------------------
 # opt=(calcfc,ts,noeigentest) freq ub3lyp scf=(xqc,maxcyc=1000) cc-pvt
 z+d
 ----------------------------------------------------------------------

 ---------------------------
 RisopO2-OH-elim-TS4-b3lyp-c
 ---------------------------
 Symbolic Z-matrix:
 Charge =  0 Multiplicity = 2

 SCF Done:  E(UB3LYP) =  -268.907162423     A.U. after   20 cycles
 SCF Done:  E(UB3LYP) =  -268.907341433     A.U. after   16 cycles
 SCF Done:  E(UB3LYP) =  -268.907341514     A.U. after    9 cycles
 Optimization completed.
    -- Stationary point found.
 Normal termination of Gaussian 16 at Fri Apr  1 20:01:30 2022.

 ---------------------------------------------------------------------
 #N Geom=AllCheck Guess=TCheck SCRF=Check GenChk UB3LYP/CC-pVTZ+d Freq
 ---------------------------------------------------------------------

 Structure from the checkpoint file:  "RisopO2-OH-elim-TS4-b3lyp-c.chk"
 ---------------------------
 RisopO2-OH-elim-TS4-b3lyp-c
 ---------------------------
 Charge =  0 Multiplicity = 2

                         Standard orientation:
 ---------------------------------------------------------------------
 Center     Atomic      Atomic             Coordinates (Angstroms)
 Number     Number       Type             X           Y           Z
 ---------------------------------------------------------------------
      1          6           0        1.328750   -1.111615   -0.010989
      2          1           0        1.337250   -2.018033    0.573212
      3          1           0        1.817421   -1.104394   -0.973549
      4          6           0        0.509882    0.039305    0.410748
      5          1           0        0.292989    0.046625    1.481818
      6          6           0        0.866820    1.414864   -0.103616
      7          1           0        1.101080    1.377743   -1.167827
      8          1           0        0.023219    2.088105    0.041361
      9          1           0        1.727759    1.813636    0.435997
     10          8           0       -0.499496   -0.620103   -0.314111
     11          8           0       -2.007577    0.169848    0.018478
     12          1           0       -2.475845   -0.656969    0.197195
 ---------------------------------------------------------------------

 SCF Done:  E(UB3LYP) =  -268.907341514     A.U. after    1 cycles

 The electronic state is 2-A.
 Alpha  occ. eigenvalues --  -19.17008 -19.14195 -10.24003 -10.23004 -10.16787
 Alpha  occ. eigenvalues --   -1.04323  -0.94818  -0.76067  -0.70798  -0.59104
 Alpha  occ. eigenvalues --   -0.51110  -0.47872  -0.45435  -0.42648  -0.40773
 Alpha  occ. eigenvalues --   -0.39306  -0.37583  -0.35347  -0.30707  -0.26992
 Alpha  occ. eigenvalues --   -0.24378
 Alpha virt. eigenvalues --   -0.04601   0.03829   0.06136   0.06914   0.07735
 Alpha virt. eigenvalues --    0.10808   0.11289   0.12622   0.14814   0.17950
 Alpha virt. eigenvalues --    0.23261   0.23491   0.26164   0.28632   0.30006

  Beta  occ. eigenvalues --  -19.17230 -19.12756 -10.24066 -10.22028 -10.16783
  Beta  occ. eigenvalues --   -1.03926  -0.91943  -0.75635  -0.69242  -0.58679
  Beta  occ. eigenvalues --   -0.50507  -0.47418  -0.44925  -0.41827  -0.40298
  Beta  occ. eigenvalues --   -0.38870  -0.37435  -0.33028  -0.30116  -0.26149
  Beta virt. eigenvalues --   -0.11388  -0.00992   0.04037   0.06485   0.07112
  Beta virt. eigenvalues --    0.08100   0.10905   0.11291   0.12793   0.14949
  Beta virt. eigenvalues --    0.18036   0.23348   0.23985   0.26837   0.29581

 Mulliken charges and spin densities:
               1          2
     1  C   -0.195478   0.696332
     2  H    0.140455  -0.018595
     3  H    0.130863  -0.020353
     4  C    0.189465  -0.025217
     5  H    0.069455   0.005251
     6  C   -0.277673  -0.000477
     7  H    0.088422   0.000080
     8  H    0.118776   0.001283
     9  H    0.085745   0.001066
    10  O   -0.253977  -0.158178
    11  O   -0.314995   0.525450
    12  H    0.218941  -0.006640
 Sum of Mulliken charges =  -0.00000   1.00000

 Dipole moment (field-independent basis, Debye):
    X=              2.0111    Y=             -1.0831    Z=              0.9877  Tot=              2.4886
 Quadrupole moment (field-independent basis, Debye-Ang):
   XX=            -29.2314   YY=            -29.2471   ZZ=            -31.0529
   XY=              1.5547   XZ=             -1.6583   YZ=             -0.7994

  Exact polarizability:  75.947  -8.983  50.058  -1.495  -0.018  39.240
 Approx polarizability: 123.515 -22.246  68.437  -0.074   1.202  55.919

 ******    1 imaginary frequencies (negative Signs) ******

                      1                      2                      3
                      A                      A                      A
 Frequencies --   -740.6327               105.6354               150.0838
 Red. masses --     13.1488                 3.5184                 1.2143
 Frc consts  --      4.2495                 0.0231                 0.0161
 IR Inten    --    142.2882                 7.7621                90.9031

                      4                      5                      6
                      A                      A                      A
 Frequencies --    203.3205               251.6169               350.5830
 Red. masses --      1.3536                 2.0664                 2.6257
 Frc consts  --      0.0330                 0.0771                 0.1901
 IR Inten    --      2.8323                 4.1309                 8.0493

                      7                      8                      9
                      A                      A                      A
 Frequencies --    415.1727               428.6591               538.0679
 Red. masses --      1.8612                 3.8287                 1.3036
 Frc consts  --      0.1890                 0.4145                 0.2224
 IR Inten    --      3.0293                10.6086                 2.7281

                     10                     11                     12
                      A                      A                      A
 Frequencies --    769.1875               845.9072               907.3394
 Red. masses --      1.3005                 2.1318                 2.3617
 Frc consts  --      0.4533                 0.8988                 1.1455
 IR Inten    --     38.3080                 7.6341                17.8193

                     13                     14                     15
                      A                      A                      A
 Frequencies --    927.5228               986.1707              1091.8859
 Red. masses --      1.1545                 1.2334                 1.7760
 Frc consts  --      0.5852                 0.7068                 1.2475
 IR Inten    --      4.3057                64.2085                 8.9288

                     16                     17                     18
                      A                      A                      A
 Frequencies --   1166.2383              1198.0876              1288.0605
 Red. masses --      1.9672                 1.8318                 1.4159
 Frc consts  --      1.5764                 1.5492                 1.3840
 IR Inten    --      9.2018                 5.6346                 4.0465

                     19                     20                     21
                      A                      A                      A
 Frequencies --   1396.4421              1422.0378              1466.9220
 Red. masses --      1.2302                 1.4539                 1.1765
 Frc consts  --      1.4134                 1.7322                 1.4916
 IR Inten    --      2.0981                30.2919                12.4297

                     22                     23                     24
                      A                      A                      A
 Frequencies --   1487.4752              1498.2347              3029.8699
 Red. masses --      1.1543                 1.0469                 1.0847
 Frc consts  --      1.5047                 1.3846                 5.8668
 IR Inten    --      6.0331                 5.6531                27.7216

                     25                     26                     27
                      A                      A                      A
 Frequencies --   3033.9197              3099.3422              3116.4493
 Red. masses --      1.0359                 1.1013                 1.1015
 Frc consts  --      5.6179                 6.2331                 6.3028
 IR Inten    --     13.9021                24.9800                10.2769

                     28                     29                     30
                      A                      A                      A
 Frequencies --   3160.2450              3275.2054              3782.5489
 Red. masses --      1.0498                 1.1215                 1.0679
 Frc consts  --      6.1772                 7.0883                 9.0022
 IR Inten    --      1.1435                 2.4016                45.2801

 - Thermochemistry -
 -------------------
 Temperature   298.150 Kelvin.  Pressure   1.00000 Atm.
 Atom     1 has atomic number  6 and mass  12.00000

 Molecular mass:    75.04460 amu.
 Principal axes and moments of inertia in atomic units:
                           1         2         3
     Eigenvalues --   248.58345 450.27842 635.98705
           X            0.99946   0.02961  -0.01452
           Y           -0.02985   0.99941  -0.01688
           Z            0.01401   0.01731   0.99975
 This molecule is an asymmetric top.
 Rotational symmetry number  1.
 Rotational temperatures (Kelvin)      0.34843     0.19236     0.13619
 Rotational constants (GHZ):           7.26010     4.00806     2.83770
    1 imaginary frequencies ignored.
 Zero-point vibrational energy     247580.5 (Joules/Mol)
                                   59.17317 (Kcal/Mol)
 Warning -- explicit consideration of   8 degrees of freedom as
           vibrations may cause significant error
 Vibrational temperatures:    151.99   215.94   292.53   362.02   504.41
          (Kelvin)            597.34   616.74   774.16  1106.69  1217.07
                             1305.46  1334.50  1418.88  1570.98  1677.96
                             1723.78  1853.23  2009.17  2046.00  2110.57
                             2140.15  2155.63  4359.31  4365.13  4459.26
                             4483.88  4546.89  4712.29  5442.24

 Zero-point correction=                           0.094298 (Hartree/Particle)
 Thermal correction to Energy=                    0.101071
 Thermal correction to Enthalpy=                  0.102015
 Thermal correction to Gibbs Free Energy=         0.063827
 Sum of electronic and zero-point Energies=           -268.813043
 Sum of electronic and thermal Energies=              -268.806271
 Sum of electronic and thermal Enthalpies=            -268.805326
 Sum of electronic and thermal Free Energies=         -268.843515

                     E (Thermal)             CV                S
                      KCal/Mol        Cal/Mol-Kelvin    Cal/Mol-Kelvin
 Total                   63.423             22.935             80.374
 Electronic               0.000              0.000              1.377
 Translational            0.889              2.981             38.862
 Rotational               0.889              2.981             25.768
 Vibrational             61.645             16.974             14.367
 Vibration     1          0.605              1.945              3.348
 Vibration     2          0.618              1.903              2.671
 Vibration     3          0.639              1.835              2.103
 Vibration     4          0.664              1.760              1.719
 Vibration     5          0.727              1.574              1.164
 Vibration     6          0.779              1.437              0.909
 Vibration     7          0.790              1.408              0.863
 Vibration     8          0.893              1.166              0.569

 Optimization completed.
    -- Stationary point found.
 Normal termination of Gaussian 16 at Fri Apr  1 20:04:05 2022.
