 Gaussian 16, Revision B.01,
 Gaussian 16:  ES64L-G16RevB.01 20-Dec-2017

 ---------------------------------------------------
 # opt=(calcfc,ts,noeigentest) freq ub3lyp cc-pvtz+d
 ---------------------------------------------------

 ---------------------------
 RisopO2-H-shift-TS3-b3lyp-c
 ---------------------------
 Symbolic Z-matrix:
 Charge =  0 Multiplicity = 2

 SCF Done:  E(UB3LYP) =  -268.896795964     A.U. after   22 cycles
 SCF Done:  E(UB3LYP) =  -268.896899937     A.U. after   19 cycles
 SCF Done:  E(UB3LYP) =  -268.896903796     A.U. after   12 cycles
 Optimization completed.
    -- Stationary point found.
 Normal termination of Gaussian 16 at Mon Mar 28 21:05:11 2022.

 ---------------------------------------------------------------------
 #N Geom=AllCheck Guess=TCheck SCRF=Check GenChk UB3LYP/CC-pVTZ+d Freq
 ---------------------------------------------------------------------

 Structure from the checkpoint file:  "RisopO2-H-shift-TS3-b3lyp-c.chk"
 ---------------------------
 RisopO2-H-shift-TS3-b3lyp-c
 ---------------------------
 Charge =  0 Multiplicity = 2

                         Standard orientation:
 ---------------------------------------------------------------------
 Center     Atomic      Atomic             Coordinates (Angstroms)
 Number     Number       Type             X           Y           Z
 ---------------------------------------------------------------------
      1          6           0        0.107902    1.380235   -0.117394
      2          1           0        0.044709    2.231466    0.551560
      3          1           0       -0.078164    1.613755   -1.162745
      4          1           0        1.361734    0.815538   -0.082115
      5          6           0       -0.417122    0.033843    0.373739
      6          1           0       -0.339473   -0.000158    1.465112
      7          6           0       -1.811936   -0.342302   -0.084470
      8          1           0       -2.540596    0.358274    0.324370
      9          1           0       -1.878365   -0.321418   -1.171945
     10          1           0       -2.070937   -1.342749    0.263113
     11          8           0        1.770664   -0.308768    0.036747
     12          8           0        0.507839   -0.914402   -0.189072
 ---------------------------------------------------------------------

 SCF Done:  E(UB3LYP) =  -268.896903796     A.U. after    1 cycles

 The electronic state is 2-A.
 Alpha  occ. eigenvalues --  -19.19267 -19.19156 -10.24877 -10.20990 -10.18319
 Alpha  occ. eigenvalues --   -1.13564  -0.89125  -0.78918  -0.71525  -0.60039
 Alpha  occ. eigenvalues --   -0.54353  -0.48761  -0.48544  -0.43268  -0.42850
 Alpha  occ. eigenvalues --   -0.41078  -0.37644  -0.37467  -0.34277  -0.27145
 Alpha  occ. eigenvalues --   -0.25559
 Alpha virt. eigenvalues --    0.02722   0.03565   0.06512   0.07208   0.09780
 Alpha virt. eigenvalues --    0.10634   0.11635   0.13782   0.14765   0.16130
 Alpha virt. eigenvalues --    0.20467   0.22527   0.24353   0.28828   0.29634

  Beta  occ. eigenvalues --  -19.19120 -19.17896 -10.24892 -10.20088 -10.18294
  Beta  occ. eigenvalues --   -1.12273  -0.87273  -0.77665  -0.70355  -0.59306
  Beta  occ. eigenvalues --   -0.52728  -0.48082  -0.47161  -0.42462  -0.41789
  Beta  occ. eigenvalues --   -0.40775  -0.37218  -0.35748  -0.33356  -0.24576
  Beta virt. eigenvalues --   -0.14112   0.03121   0.04064   0.06611   0.07551
  Beta virt. eigenvalues --    0.09871   0.10819   0.11808   0.14229   0.16226
  Beta virt. eigenvalues --    0.16601   0.20718   0.22788   0.24709   0.29178

 Mulliken charges and spin densities:
               1          2
     1  C   -0.282120   0.600038
     2  H    0.114347  -0.013647
     3  H    0.109973  -0.011797
     4  H    0.187687  -0.048319
     5  C    0.144113   0.001486
     6  H    0.080407   0.000518
     7  C   -0.291271   0.006699
     8  H    0.095109  -0.000014
     9  H    0.100178  -0.001074
    10  H    0.112868   0.009338
    11  O   -0.205892   0.416200
    12  O   -0.165398   0.040572
 Sum of Mulliken charges =  -0.00000   1.00000

 Dipole moment (field-independent basis, Debye):
    X=             -2.3796    Y=              2.0338    Z=              0.4762  Tot=              3.1663
 Quadrupole moment (field-independent basis, Debye-Ang):
   XX=            -33.2134   YY=            -30.9365   ZZ=            -30.7932
   XY=              2.1058   XZ=             -0.0384   YZ=             -0.4325

  Exact polarizability:  56.201  -3.329  56.289   0.566  -1.657  39.949
 Approx polarizability:  81.130  -8.214  82.481   0.907  -0.157  56.822

 ******    1 imaginary frequencies (negative Signs) ******

                      1                      2                      3
                      A                      A                      A
 Frequencies --  -2229.5380               193.6070               206.6409
 Red. masses --      1.1011                 2.5625                 1.1820
 Frc consts  --      3.2248                 0.0566                 0.0297
 IR Inten    --    926.8539                 0.4004                 0.3408

                      4                      5                      6
                      A                      A                      A
 Frequencies --    316.4591               401.9669               482.9566
 Red. masses --      2.5834                 1.4019                 2.4831
 Frc consts  --      0.1524                 0.1335                 0.3412
 IR Inten    --      3.4526                 0.7694                 1.5842

                      7                      8                      9
                      A                      A                      A
 Frequencies --    570.3859               653.8259               840.7772
 Red. masses --      2.7834                 3.4762                 3.0192
 Frc consts  --      0.5335                 0.8755                 1.2575
 IR Inten    --      7.1242                 4.4491                 1.4809

                     10                     11                     12
                      A                      A                      A
 Frequencies --    873.2173               922.5457               956.2967
 Red. masses --      2.5428                 2.5936                 1.7244
 Frc consts  --      1.1424                 1.3006                 0.9291
 IR Inten    --      8.5268                12.4257                 6.3435

                     13                     14                     15
                      A                      A                      A
 Frequencies --    972.8956              1092.7208              1110.1643
 Red. masses --      1.4705                 1.9401                 1.1553
 Frc consts  --      0.8201                 1.3649                 0.8389
 IR Inten    --      9.9280                23.2052                19.5103

                     16                     17                     18
                      A                      A                      A
 Frequencies --   1139.2020              1180.3636              1334.1392
 Red. masses --      2.0831                 2.0852                 1.1710
 Frc consts  --      1.5928                 1.7117                 1.2280
 IR Inten    --      8.4453                 4.6745                 1.1166

                     19                     20                     21
                      A                      A                      A
 Frequencies --   1377.9033              1409.8930              1457.0231
 Red. masses --      1.3262                 1.2975                 1.1625
 Frc consts  --      1.4836                 1.5196                 1.4541
 IR Inten    --      9.1063                13.7947                 5.3063

                     22                     23                     24
                      A                      A                      A
 Frequencies --   1484.4302              1496.3130              1718.6786
 Red. masses --      1.0489                 1.0485                 1.0376
 Frc consts  --      1.3618                 1.3831                 1.8057
 IR Inten    --      4.7313                 6.4773                29.3110

                     25                     26                     27
                      A                      A                      A
 Frequencies --   3009.6166              3037.1843              3090.8801
 Red. masses --      1.0842                 1.0341                 1.0541
 Frc consts  --      5.7863                 5.6202                 5.9331
 IR Inten    --     33.6536                10.4987                 7.9449

                     28                     29                     30
                      A                      A                      A
 Frequencies --   3103.0547              3110.6763              3184.3479
 Red. masses --      1.1014                 1.1028                 1.1125
 Frc consts  --      6.2485                 6.2873                 6.6464
 IR Inten    --     11.1294                19.9738                10.5683

 - Thermochemistry -
 -------------------
 Temperature   298.150 Kelvin.  Pressure   1.00000 Atm.
 Atom     1 has atomic number  6 and mass  12.00000

 Molecular mass:    75.04460 amu.
 Principal axes and moments of inertia in atomic units:
                           1         2         3
     Eigenvalues --   204.05767 428.39915 575.95334
           X            0.99862   0.05242   0.00272
           Y           -0.05238   0.99854  -0.01310
           Z           -0.00341   0.01294   0.99991
 This molecule is an asymmetric top.
 Rotational symmetry number  1.
 Rotational temperatures (Kelvin)      0.42446     0.20218     0.15038
 Rotational constants (GHZ):           8.84427     4.21276     3.13349
    1 imaginary frequencies ignored.
 Zero-point vibrational energy     243608.5 (Joules/Mol)
                                   58.22384 (Kcal/Mol)
 Warning -- explicit consideration of   6 degrees of freedom as
           vibrations may cause significant error
 Vibrational temperatures:    278.56   297.31   455.31   578.34   694.87
          (Kelvin)            820.66   940.71  1209.69  1256.36  1327.34
                             1375.90  1399.78  1572.18  1597.28  1639.06
                             1698.28  1919.53  1982.50  2028.52  2096.33
                             2135.76  2152.86  2472.80  4330.17  4369.83
                             4447.09  4464.60  4475.57  4581.57

 Zero-point correction=                           0.092786 (Hartree/Particle)
 Thermal correction to Energy=                    0.098387
 Thermal correction to Enthalpy=                  0.099331
 Thermal correction to Gibbs Free Energy=         0.063798
 Sum of electronic and zero-point Energies=           -268.804118
 Sum of electronic and thermal Energies=              -268.798517
 Sum of electronic and thermal Enthalpies=            -268.797573
 Sum of electronic and thermal Free Energies=         -268.833106

                     E (Thermal)             CV                S
                      KCal/Mol        Cal/Mol-Kelvin    Cal/Mol-Kelvin
 Total                   61.739             20.130             74.786
 Electronic               0.000              0.000              1.377
 Translational            0.889              2.981             38.862
 Rotational               0.889              2.981             25.424
 Vibrational             59.961             14.169              9.123
 Vibration     1          0.635              1.849              2.193
 Vibration     2          0.641              1.830              2.073
 Vibration     3          0.703              1.642              1.328
 Vibration     4          0.768              1.466              0.955
 Vibration     5          0.839              1.288              0.702
 Vibration     6          0.926              1.095              0.503

 Optimization completed.
    -- Stationary point found.
 Normal termination of Gaussian 16 at Mon Mar 28 21:07:48 2022.
