 Gaussian 16, Revision C.01,
 Gaussian 16:  EM64L-G16RevC.01  3-Jul-2019

 ----------------------------------------------------------------------
 #p B3LYP/cc-PVTZ scf(verytight, maxcycles=1000) opt(calcfc, maxcyc=100
 0) freq(hpmodes) int(grid=ultrafine)
 ----------------------------------------------------------------------

 ------
 Mol_03
 ------
 Symbolic Z-matrix:
 Charge =  0 Multiplicity = 2

 SCF Done:  E(UB3LYP) =  -384.444126362     A.U. after   16 cycles
 SCF Done:  E(UB3LYP) =  -384.463863871     A.U. after   13 cycles
 SCF Done:  E(UB3LYP) =  -384.469041127     A.U. after   14 cycles
 SCF Done:  E(UB3LYP) =  -384.470871942     A.U. after   14 cycles
 SCF Done:  E(UB3LYP) =  -384.471698337     A.U. after   13 cycles
 SCF Done:  E(UB3LYP) =  -384.472275590     A.U. after   13 cycles
 SCF Done:  E(UB3LYP) =  -384.472966969     A.U. after   14 cycles
 SCF Done:  E(UB3LYP) =  -384.473065204     A.U. after   11 cycles
 SCF Done:  E(UB3LYP) =  -384.472986221     A.U. after   13 cycles
 SCF Done:  E(UB3LYP) =  -384.473094291     A.U. after   11 cycles
 SCF Done:  E(UB3LYP) =  -384.473095483     A.U. after   10 cycles
 SCF Done:  E(UB3LYP) =  -384.473096710     A.U. after    9 cycles
 SCF Done:  E(UB3LYP) =  -384.473096925     A.U. after    8 cycles
 SCF Done:  E(UB3LYP) =  -384.473096949     A.U. after    7 cycles
 Optimization completed.
    -- Stationary point found.
 Normal termination of Gaussian 16 at Sun Apr  3 20:56:49 2022.

 -------------------------------------------------------------------
 #P Geom=AllCheck Guess=TCheck SCRF=Check GenChk UB3LYP/CC-pVTZ Freq
 -------------------------------------------------------------------

 Structure from the checkpoint file:  "Mol_03.chk"
 ------
 Mol_03
 ------
 Charge =  0 Multiplicity = 2

                         Standard orientation:
 ---------------------------------------------------------------------
 Center     Atomic      Atomic             Coordinates (Angstroms)
 Number     Number       Type             X           Y           Z
 ---------------------------------------------------------------------
      1          6           0       -2.269576   -0.270483   -0.096576
      2          6           0       -1.682249    1.110892   -0.086820
      3          6           0       -0.401712    1.371823    0.158875
      4          6           0        0.603526    0.310707    0.499210
      5          6           0        0.021357   -1.055141    0.539334
      6          6           0       -1.191467   -1.354318   -0.268318
      7          1           0       -1.592942   -2.338914   -0.026702
      8          1           0       -0.916926   -1.386772   -1.334196
      9          1           0        0.589827   -1.850166    1.001169
     10          1           0       -0.030725    2.388525    0.140653
     11          1           0       -2.359938    1.935364   -0.279151
     12          1           0       -3.012008   -0.350157   -0.894120
     13          1           0       -2.817085   -0.434646    0.838365
     14          8           0        1.632009    0.442182   -0.537671
     15          1           0        1.101620    0.554259    1.441966
     16          8           0        2.831816   -0.216822   -0.055204
     17          1           0        2.848303   -1.001250   -0.619217
 ---------------------------------------------------------------------

 SCF Done:  E(UB3LYP) =  -384.473096949     A.U. after    1 cycles

 The electronic state is 2-A.
 Alpha  occ. eigenvalues --  -19.18035 -19.17526 -10.23003 -10.18806 -10.18489
 Alpha  occ. eigenvalues --  -10.18325 -10.18310 -10.17643  -1.11058  -0.91280
 Alpha  occ. eigenvalues --   -0.83573  -0.75615  -0.73846  -0.63063  -0.60805
 Alpha  occ. eigenvalues --   -0.53262  -0.51526  -0.50874  -0.46150  -0.45236
 Alpha  occ. eigenvalues --   -0.44581  -0.42327  -0.40752  -0.39614  -0.37849
 Alpha  occ. eigenvalues --   -0.35217  -0.32649  -0.30545  -0.27347  -0.26523
 Alpha  occ. eigenvalues --   -0.20896
 Alpha virt. eigenvalues --   -0.01265   0.02664   0.03432   0.05942   0.06683
 Alpha virt. eigenvalues --    0.07143   0.08632   0.09509   0.10330   0.12590
 Alpha virt. eigenvalues --    0.13031   0.15928   0.19233   0.20237   0.21062

  Beta  occ. eigenvalues --  -19.17799 -19.17533 -10.23086 -10.18429 -10.18381
  Beta  occ. eigenvalues --  -10.18325 -10.17628 -10.17461  -1.10803  -0.90965
  Beta  occ. eigenvalues --   -0.83061  -0.75016  -0.72851  -0.62873  -0.59630
  Beta  occ. eigenvalues --   -0.53028  -0.51188  -0.50259  -0.45787  -0.44936
  Beta  occ. eigenvalues --   -0.44159  -0.41887  -0.40591  -0.39053  -0.37207
  Beta  occ. eigenvalues --   -0.34895  -0.32462  -0.30374  -0.26782  -0.26366
  Beta virt. eigenvalues --   -0.07150  -0.01117   0.02767   0.03591   0.06102
  Beta virt. eigenvalues --    0.06840   0.07256   0.08725   0.09737   0.10475
  Beta virt. eigenvalues --    0.12680   0.13288   0.16427   0.19597   0.20494

 Mulliken charges and spin densities:
               1          2
     1  C   -0.138087   0.018568
     2  C   -0.121562   0.000310
     3  C   -0.166205   0.005720
     4  C    0.169226  -0.031186
     5  C   -0.202541   0.945963
     6  C   -0.147177  -0.047118
     7  H    0.095366   0.003336
     8  H    0.091879   0.058525
     9  H    0.130145  -0.028943
    10  H    0.117306  -0.000508
    11  H    0.117404  -0.000117
    12  H    0.091691   0.002527
    13  H    0.096257   0.005132
    14  O   -0.209691   0.059630
    15  H    0.086984   0.007276
    16  O   -0.235368  -0.002536
    17  H    0.224372   0.003423
 Sum of Mulliken charges =  -0.00000   1.00000

 Dipole moment (field-independent basis, Debye):
    X=             -1.8307    Y=             -1.5869    Z=              0.0154  Tot=              2.4228
 Quadrupole moment (field-independent basis, Debye-Ang):
   XX=            -48.9944   YY=            -44.8023   ZZ=            -49.0810
   XY=             -4.1479   XZ=             -0.0610   YZ=              1.6731

  Exact polarizability:      99.134      -1.350      74.668       4.527       0.404      57.274
 Approx polarizability:     140.155      -0.022     102.911       7.770      -0.730      90.141

                      1                      2                      3
                      A                      A                      A
 Frequencies --     67.1887               117.2789               176.8257
 Red. masses --      3.3693                 5.4615                 2.0069
 Frc consts  --      0.0090                 0.0443                 0.0370
 IR Inten    --      0.8781                 4.4173                 8.8216

                      4                      5                      6
                      A                      A                      A
 Frequencies --    240.7993               246.6007               297.5087
 Red. masses --      1.4452                 1.7894                 2.0087
 Frc consts  --      0.0494                 0.0641                 0.1048
 IR Inten    --    109.6118                19.2300                 3.2607

                      7                      8                      9
                      A                      A                      A
 Frequencies --    374.7432               452.4996               501.8589
 Red. masses --      2.3967                 2.8260                 3.7373
 Frc consts  --      0.1983                 0.3409                 0.5546
 IR Inten    --      3.2932                 4.0899                 1.6372

                     10                     11                     12
                      A                      A                      A
 Frequencies --    553.0556               587.4548               716.5016
 Red. masses --      4.7381                 2.9116                 1.6163
 Frc consts  --      0.8539                 0.5920                 0.4889
 IR Inten    --      7.9891                 3.0069                15.0237

                     13                     14                     15
                      A                      A                      A
 Frequencies --    759.9715               837.6426               883.7487
 Red. masses --      1.7298                 4.1495                 2.5583
 Frc consts  --      0.5886                 1.7154                 1.1772
 IR Inten    --      5.6222                 6.6990                 0.8782

                     16                     17                     18
                      A                      A                      A
 Frequencies --    896.8407               922.7228               959.1561
 Red. masses --      5.1649                10.4588                 2.5435
 Frc consts  --      2.4476                 5.2466                 1.3787
 IR Inten    --     71.2172                 6.6749                11.7348

                     19                     20                     21
                      A                      A                      A
 Frequencies --    985.6141              1008.2566              1036.1460
 Red. masses --      2.2901                 1.3400                 2.1783
 Frc consts  --      1.3108                 0.8026                 1.3779
 IR Inten    --      3.1239                 0.6090                 0.5774

                     22                     23                     24
                      A                      A                      A
 Frequencies --   1066.6177              1128.4758              1177.0111
 Red. masses --      1.7248                 1.4315                 1.1567
 Frc consts  --      1.1561                 1.0741                 0.9442
 IR Inten    --      5.9135                 3.3174                 1.2971

                     25                     26                     27
                      A                      A                      A
 Frequencies --   1189.1308              1271.3026              1305.1606
 Red. masses --      1.1189                 1.2102                 1.1636
 Frc consts  --      0.9322                 1.1524                 1.1678
 IR Inten    --      1.6985                 0.6597                29.4623

                     28                     29                     30
                      A                      A                      A
 Frequencies --   1317.5783              1356.5852              1358.9750
 Red. masses --      1.5455                 1.3077                 1.1351
 Frc consts  --      1.5807                 1.4179                 1.2351
 IR Inten    --      1.2677                 0.1320                32.0101

                     31                     32                     33
                      A                      A                      A
 Frequencies --   1378.3950              1401.3927              1428.4045
 Red. masses --      2.1675                 1.6165                 1.5447
 Frc consts  --      2.4264                 1.8705                 1.8570
 IR Inten    --      2.6439                 1.4976                 0.3370

                     34                     35                     36
                      A                      A                      A
 Frequencies --   1468.7809              1481.3135              1712.4954
 Red. masses --      1.0814                 1.0956                 6.5091
 Frc consts  --      1.3745                 1.4165                11.2468
 IR Inten    --      4.8961                 6.4411                 5.4242

                     37                     38                     39
                      A                      A                      A
 Frequencies --   2930.0516              3000.3835              3017.6831
 Red. masses --      1.0721                 1.0687                 1.0826
 Frc consts  --      5.4229                 5.6684                 5.8085
 IR Inten    --     20.5724                29.2031                19.5474

                     40                     41                     42
                      A                      A                      A
 Frequencies --   3044.0254              3065.1211              3140.9802
 Red. masses --      1.0917                 1.0863                 1.0864
 Frc consts  --      5.9603                 6.0130                 6.3147
 IR Inten    --     27.7880                32.5605                12.8725

                     43                     44                     45
                      A                      A                      A
 Frequencies --   3173.6311              3182.3496              3758.7556
 Red. masses --      1.0945                 1.0888                 1.0685
 Frc consts  --      6.4949                 6.4966                 8.8943
 IR Inten    --     18.8689                12.7978                31.1865

 - Thermochemistry -
 -------------------
 Temperature   298.150 Kelvin.  Pressure   1.00000 Atm.
 Atom     1 has atomic number  6 and mass  12.00000

 Molecular mass:   113.06025 amu.
 Principal axes and moments of inertia in atomic units:
                           1         2         3
     Eigenvalues --   428.819331231.914391522.30855
           X            0.99996  -0.00265   0.00855
           Y            0.00253   0.99989   0.01479
           Z           -0.00859  -0.01477   0.99985
 This molecule is an asymmetric top.
 Rotational symmetry number  1.
 Rotational temperatures (Kelvin)      0.20198     0.07031     0.05690
 Rotational constants (GHZ):           4.20863     1.46499     1.18553
 Zero-point vibrational energy     364723.5 (Joules/Mol)
                                   87.17102 (Kcal/Mol)
 Warning -- explicit consideration of  11 degrees of freedom as
           vibrations may cause significant error
 Vibrational temperatures:     96.67   168.74   254.41   346.46   354.80
          (Kelvin)            428.05   539.17   651.05   722.06   795.72
                              845.22  1030.89  1093.43  1205.18  1271.52
                             1290.35  1327.59  1380.01  1418.08  1450.66
                             1490.78  1534.62  1623.62  1693.46  1710.89
                             1829.12  1877.84  1895.70  1951.82  1955.26
                             1983.20  2016.29  2055.16  2113.25  2131.28
                             2463.90  4215.69  4316.88  4341.77  4379.67
                             4410.03  4519.17  4566.15  4578.69  5408.01

 Zero-point correction=                           0.138916 (Hartree/Particle)
 Thermal correction to Energy=                    0.147186
 Thermal correction to Enthalpy=                  0.148130
 Thermal correction to Gibbs Free Energy=         0.105460
 Sum of electronic and zero-point Energies=           -384.334181
 Sum of electronic and thermal Energies=              -384.325911
 Sum of electronic and thermal Enthalpies=            -384.324967
 Sum of electronic and thermal Free Energies=         -384.367637

                     E (Thermal)             CV                S
                      KCal/Mol        Cal/Mol-Kelvin    Cal/Mol-Kelvin
 Total                   92.360             30.614             89.806
 Electronic               0.000              0.000              1.377
 Translational            0.889              2.981             40.084
 Rotational               0.889              2.981             28.177
 Vibrational             90.583             24.652             20.168
 Vibration     1          0.598              1.970              4.234
 Vibration     2          0.608              1.935              3.145
 Vibration     3          0.628              1.871              2.362
 Vibration     4          0.658              1.778              1.797
 Vibration     5          0.661              1.768              1.755
 Vibration     6          0.691              1.678              1.431
 Vibration     7          0.746              1.524              1.060
 Vibration     8          0.811              1.355              0.788
 Vibration     9          0.857              1.246              0.653
 Vibration    10          0.908              1.133              0.538
 Vibration    11          0.945              1.059              0.472

 Optimization completed.
    -- Stationary point found.
 Normal termination of Gaussian 16 at Sun Apr  3 21:18:43 2022.
