 Gaussian 16, Revision C.01,
 Gaussian 16:  EM64L-G16RevC.01  3-Jul-2019

 ----------------------------------------------------------------------
 #p B3LYP/cc-PVTZ scf(verytight, maxcycles=1000) opt(calcfc, maxcyc=100
 0) freq(hpmodes) int(grid=ultrafine)
 ----------------------------------------------------------------------

 ------
 Mol_01
 ------
 Symbolic Z-matrix:
 Charge =  0 Multiplicity = 2

 SCF Done:  E(UB3LYP) =  -234.073541924     A.U. after   16 cycles
 SCF Done:  E(UB3LYP) =  -234.090342343     A.U. after   14 cycles
 SCF Done:  E(UB3LYP) =  -234.092922420     A.U. after   14 cycles
 SCF Done:  E(UB3LYP) =  -234.093354853     A.U. after   13 cycles
 SCF Done:  E(UB3LYP) =  -234.093375006     A.U. after   12 cycles
 SCF Done:  E(UB3LYP) =  -234.093384901     A.U. after   10 cycles
 SCF Done:  E(UB3LYP) =  -234.093384954     A.U. after    7 cycles
 SCF Done:  E(UB3LYP) =  -234.093385034     A.U. after    7 cycles
 Optimization completed.
    -- Stationary point found.
 Normal termination of Gaussian 16 at Sun Apr  3 20:19:26 2022.

 -------------------------------------------------------------------
 #P Geom=AllCheck Guess=TCheck SCRF=Check GenChk UB3LYP/CC-pVTZ Freq
 -------------------------------------------------------------------

 Structure from the checkpoint file:  "Mol_01.chk"
 ------
 Mol_01
 ------
 Charge =  0 Multiplicity = 2

                         Standard orientation:
 ---------------------------------------------------------------------
 Center     Atomic      Atomic             Coordinates (Angstroms)
 Number     Number       Type             X           Y           Z
 ---------------------------------------------------------------------
      1          6           0       -1.270924   -0.670120    0.194373
      2          6           0       -1.211941    0.815216    0.003325
      3          6           0        0.001758    1.472759   -0.092155
      4          6           0        1.213897    0.812327    0.003290
      5          6           0        1.269313   -0.673149    0.194400
      6          6           0       -0.001619   -1.357184   -0.327410
      7          1           0       -0.002886   -2.414228   -0.056089
      8          1           0       -0.001543   -1.307736   -1.419272
      9          1           0        1.397519   -0.901934    1.261986
     10          1           0        2.151420   -1.087820   -0.300069
     11          1           0        2.140012    1.370470   -0.036080
     12          1           0        0.003020    2.547855   -0.231153
     13          1           0       -2.136708    1.375592   -0.036047
     14          1           0       -2.154005   -1.082653   -0.300149
     15          1           0       -1.399736   -0.898646    1.261941
 ---------------------------------------------------------------------

 SCF Done:  E(UB3LYP) =  -234.093385034     A.U. after    1 cycles

 The electronic state is 2-A.
 Alpha  occ. eigenvalues --  -10.17454 -10.17454 -10.17268 -10.17267 -10.17012
 Alpha  occ. eigenvalues --  -10.16492  -0.83908  -0.74549  -0.74383  -0.61315
 Alpha  occ. eigenvalues --   -0.60857  -0.50532  -0.50269  -0.44750  -0.41804
 Alpha  occ. eigenvalues --   -0.41116  -0.39843  -0.39607  -0.35525  -0.32298
 Alpha  occ. eigenvalues --   -0.32003  -0.29153  -0.17771
 Alpha virt. eigenvalues --    0.02853   0.04404   0.06963   0.07188   0.07653
 Alpha virt. eigenvalues --    0.09633   0.09936   0.11589   0.12392   0.13951
 Alpha virt. eigenvalues --    0.17759   0.20054   0.22221   0.22682   0.26045

  Beta  occ. eigenvalues --  -10.17317 -10.17316 -10.16984 -10.16803 -10.16578
  Beta  occ. eigenvalues --  -10.16569  -0.83163  -0.74215  -0.73252  -0.60658
  Beta  occ. eigenvalues --   -0.59970  -0.50199  -0.49700  -0.44272  -0.41309
  Beta  occ. eigenvalues --   -0.40413  -0.39803  -0.39053  -0.34610  -0.32115
  Beta  occ. eigenvalues --   -0.31697  -0.27225
  Beta virt. eigenvalues --   -0.06661   0.03257   0.05547   0.07053   0.07466
  Beta virt. eigenvalues --    0.08095   0.09971   0.10126   0.11881   0.12523
  Beta virt. eigenvalues --    0.14186   0.17787   0.20353   0.22363   0.23027

 Mulliken charges and spin densities:
               1          2
     1  C   -0.145162  -0.027952
     2  C   -0.145167   0.604888
     3  C   -0.114145  -0.197277
     4  C   -0.145172   0.604907
     5  C   -0.145161  -0.027951
     6  C   -0.157991   0.015423
     7  H    0.087567  -0.001350
     8  H    0.085890  -0.001316
     9  H    0.088389   0.027205
    10  H    0.089610   0.008327
    11  H    0.109243  -0.023382
    12  H    0.104857   0.006324
    13  H    0.109242  -0.023381
    14  H    0.089609   0.008329
    15  H    0.088389   0.027205
 Sum of Mulliken charges =  -0.00000   1.00000

 Dipole moment (field-independent basis, Debye):
    X=             -0.0006    Y=             -0.4560    Z=              0.1049  Tot=              0.4679
 Quadrupole moment (field-independent basis, Debye-Ang):
   XX=            -36.3442   YY=            -37.0773   ZZ=            -39.5606
   XY=             -0.0009   XZ=             -0.0005   YZ=             -0.4070

  Exact polarizability:      82.240      -0.014      70.600      -0.002      -1.742      49.399
 Approx polarizability:     124.229      -0.035      94.866      -0.005      -3.315      76.156

                      1                      2                      3
                      A                      A                      A
 Frequencies --    181.9479               252.8795               433.0617
 Red. masses --      1.9440                 1.7391                 2.1619
 Frc consts  --      0.0379                 0.0655                 0.2389
 IR Inten    --      0.2597                 0.1040                 1.4481

                      4                      5                      6
                      A                      A                      A
 Frequencies --    503.5292               516.4283               606.2741
 Red. masses --      2.6161                 4.4668                 1.2103
 Frc consts  --      0.3908                 0.7019                 0.2621
 IR Inten    --      1.1645                 0.0026                51.7958

                      7                      8                      9
                      A                      A                      A
 Frequencies --    695.2877               730.3359               833.1947
 Red. masses --      1.2827                 1.8776                 3.5390
 Frc consts  --      0.3653                 0.5901                 1.4475
 IR Inten    --      0.0003                 1.1404                 0.4151

                     10                     11                     12
                      A                      A                      A
 Frequencies --    862.9551               890.0484               956.0233
 Red. masses --      1.4556                 2.4736                 2.4330
 Frc consts  --      0.6387                 1.1545                 1.3102
 IR Inten    --      0.0542                 8.0323                 0.5431

                     13                     14                     15
                      A                      A                      A
 Frequencies --    966.2615              1017.2937              1056.1173
 Red. masses --      1.3080                 3.0739                 1.8200
 Frc consts  --      0.7195                 1.8743                 1.1961
 IR Inten    --      1.7383                 1.4261                 1.8673

                     16                     17                     18
                      A                      A                      A
 Frequencies --   1063.7804              1138.9134              1146.1474
 Red. masses --      1.8358                 1.3667                 1.1139
 Frc consts  --      1.2240                 1.0445                 0.8622
 IR Inten    --      2.3242                 0.9762                 3.9197

                     19                     20                     21
                      A                      A                      A
 Frequencies --   1164.7025              1217.9102              1271.5977
 Red. masses --      1.0648                 1.9002                 1.2078
 Frc consts  --      0.8510                 1.6607                 1.1507
 IR Inten    --      1.2338                 0.1736                 1.9933

                     22                     23                     24
                      A                      A                      A
 Frequencies --   1345.9751              1361.7991              1371.5230
 Red. masses --      1.3496                 1.2997                 1.7038
 Frc consts  --      1.4405                 1.4201                 1.8883
 IR Inten    --      4.0242                 0.5117                 0.0085

                     25                     26                     27
                      A                      A                      A
 Frequencies --   1403.6826              1450.0302              1476.2952
 Red. masses --      1.7171                 1.7196                 1.1687
 Frc consts  --      1.9934                 2.1303                 1.5007
 IR Inten    --      0.1197                 6.7634                 5.2236

                     28                     29                     30
                      A                      A                      A
 Frequencies --   1479.3779              1495.3697              1514.5125
 Red. masses --      1.2504                 1.1309                 2.0258
 Frc consts  --      1.6124                 1.4900                 2.7377
 IR Inten    --      0.4421                 1.7678                 3.4757

                     31                     32                     33
                      A                      A                      A
 Frequencies --   2954.3821              2955.7192              3019.9092
 Red. masses --      1.0738                 1.0737                 1.0662
 Frc consts  --      5.5223                 5.5267                 5.7291
 IR Inten    --     14.8886                43.4268                 9.8854

                     34                     35                     36
                      A                      A                      A
 Frequencies --   3033.4492              3040.1445              3063.4971
 Red. masses --      1.0851                 1.0800                 1.1028
 Frc consts  --      5.8827                 5.8810                 6.0980
 IR Inten    --     47.2651                53.2841                43.1101

                     37                     38                     39
                      A                      A                      A
 Frequencies --   3142.5272              3168.1560              3177.1282
 Red. masses --      1.0858                 1.0874                 1.0944
 Frc consts  --      6.3176                 6.4307                 6.5087
 IR Inten    --      6.5842                22.4257                25.1887

 - Thermochemistry -
 -------------------
 Temperature   298.150 Kelvin.  Pressure   1.00000 Atm.
 Atom     1 has atomic number  6 and mass  12.00000

 Molecular mass:    81.07043 amu.
 Principal axes and moments of inertia in atomic units:
                           1         2         3
     Eigenvalues --   372.46548 373.19594 690.12909
           X            0.00277   1.00000  -0.00000
           Y            0.99999  -0.00277  -0.00359
           Z            0.00359  -0.00001   0.99999
 This molecule is an asymmetric top.
 Rotational symmetry number  1.
 Rotational temperatures (Kelvin)      0.23254     0.23209     0.12550
 Rotational constants (GHZ):           4.84539     4.83591     2.61508
 Zero-point vibrational energy     346666.8 (Joules/Mol)
                                   82.85536 (Kcal/Mol)
 Warning -- explicit consideration of   6 degrees of freedom as
           vibrations may cause significant error
 Vibrational temperatures:    261.78   363.84   623.08   724.47   743.03
          (Kelvin)            872.29  1000.36  1050.79  1198.78  1241.60
                             1280.58  1375.50  1390.23  1463.66  1519.52
                             1530.54  1638.64  1649.05  1675.75  1752.30
                             1829.55  1936.56  1959.33  1973.32  2019.59
                             2086.27  2124.06  2128.49  2151.50  2179.05
                             4250.70  4252.62  4344.98  4364.46  4374.09
                             4407.69  4521.40  4558.27  4571.18

 Zero-point correction=                           0.132038 (Hartree/Particle)
 Thermal correction to Energy=                    0.137543
 Thermal correction to Enthalpy=                  0.138487
 Thermal correction to Gibbs Free Energy=         0.102852
 Sum of electronic and zero-point Energies=           -233.961347
 Sum of electronic and thermal Energies=              -233.955842
 Sum of electronic and thermal Enthalpies=            -233.954898
 Sum of electronic and thermal Free Energies=         -233.990533

                     E (Thermal)             CV                S
                      KCal/Mol        Cal/Mol-Kelvin    Cal/Mol-Kelvin
 Total                   86.310             21.510             75.001
 Electronic               0.000              0.000              1.377
 Translational            0.889              2.981             39.092
 Rotational               0.889              2.981             26.064
 Vibrational             84.532             15.548              8.467
 Vibration     1          0.630              1.864              2.308
 Vibration     2          0.664              1.758              1.710
 Vibration     3          0.794              1.398              0.849
 Vibration     4          0.859              1.242              0.649
 Vibration     5          0.871              1.214              0.618
 Vibration     6          0.965              1.019              0.439

 Optimization completed.
    -- Stationary point found.
 Normal termination of Gaussian 16 at Sun Apr  3 20:35:19 2022.
