 Gaussian 16, Revision C.01,
 Gaussian 16:  EM64L-G16RevC.01  3-Jul-2019

 ----------------------------------------------------------------------
 #p B3LYP/cc-PVTZ scf(verytight, maxcycles=1000) opt(calcfc, maxcyc=100
 0) freq(hpmodes) int(grid=ultrafine)
 ----------------------------------------------------------------------

 ------
 Mol_02
 ------
 Symbolic Z-matrix:
 Charge =  0 Multiplicity = 2

 SCF Done:  E(UB3LYP) =  -384.492406313     A.U. after   17 cycles
 SCF Done:  E(UB3LYP) =  -384.500879378     A.U. after   15 cycles
 SCF Done:  E(UB3LYP) =  -384.501458287     A.U. after   15 cycles
 SCF Done:  E(UB3LYP) =  -384.501507438     A.U. after   14 cycles
 SCF Done:  E(UB3LYP) =  -384.501509353     A.U. after   12 cycles
 SCF Done:  E(UB3LYP) =  -384.501509425     A.U. after   11 cycles
 Optimization completed.
    -- Stationary point found.
 Normal termination of Gaussian 16 at Sun Apr  3 20:36:32 2022.

 -------------------------------------------------------------------
 #P Geom=AllCheck Guess=TCheck SCRF=Check GenChk UB3LYP/CC-pVTZ Freq
 -------------------------------------------------------------------

 Structure from the checkpoint file:  "Mol_02.chk"
 ------
 Mol_02
 ------
 Charge =  0 Multiplicity = 2

                         Standard orientation:
 ---------------------------------------------------------------------
 Center     Atomic      Atomic             Coordinates (Angstroms)
 Number     Number       Type             X           Y           Z
 ---------------------------------------------------------------------
      1          6           0       -2.143523   -0.296366   -0.248241
      2          6           0       -1.626244    1.106064   -0.109575
      3          6           0       -0.374439    1.406148    0.227564
      4          6           0        0.645448    0.361421    0.551672
      5          6           0        0.060998   -1.034477    0.719939
      6          6           0       -1.011870   -1.323667   -0.329382
      7          1           0       -1.404954   -2.332968   -0.201763
      8          1           0       -0.558893   -1.282580   -1.322588
      9          1           0       -0.370013   -1.097105    1.723392
     10          1           0        0.874897   -1.758364    0.678121
     11          1           0       -0.055204    2.438893    0.289131
     12          1           0       -2.329465    1.911264   -0.292153
     13          1           0       -2.782586   -0.360730   -1.132434
     14          1           0       -2.800309   -0.517476    0.602293
     15          8           0        1.619649    0.367894   -0.576597
     16          1           0        1.239765    0.640911    1.421258
     17          8           0        2.740918   -0.237466   -0.253043
 ---------------------------------------------------------------------

 SCF Done:  E(UB3LYP) =  -384.501509425     A.U. after    1 cycles

 The electronic state is 2-A.
 Alpha  occ. eigenvalues --  -19.23913 -19.18944 -10.24287 -10.19335 -10.18796
 Alpha  occ. eigenvalues --  -10.18441 -10.18416 -10.18085  -1.18378  -0.88843
 Alpha  occ. eigenvalues --   -0.82995  -0.76348  -0.74238  -0.63558  -0.62204
 Alpha  occ. eigenvalues --   -0.54128  -0.52789  -0.50488  -0.49237  -0.46732
 Alpha  occ. eigenvalues --   -0.45220  -0.42860  -0.41520  -0.40819  -0.39754
 Alpha  occ. eigenvalues --   -0.35377  -0.34091  -0.33101  -0.28560  -0.27538
 Alpha  occ. eigenvalues --   -0.26757
 Alpha virt. eigenvalues --   -0.01732   0.02643   0.05626   0.05972   0.07168
 Alpha virt. eigenvalues --    0.08742   0.09089   0.10596   0.11641   0.12515
 Alpha virt. eigenvalues --    0.13832   0.14333   0.16936   0.18380   0.20675

  Beta  occ. eigenvalues --  -19.22901 -19.17027 -10.24325 -10.19341 -10.18794
  Beta  occ. eigenvalues --  -10.18435 -10.18388 -10.18086  -1.15679  -0.87318
  Beta  occ. eigenvalues --   -0.81443  -0.76321  -0.73294  -0.63300  -0.61947
  Beta  occ. eigenvalues --   -0.53606  -0.52235  -0.49475  -0.47045  -0.46108
  Beta  occ. eigenvalues --   -0.43133  -0.42624  -0.41460  -0.39537  -0.37878
  Beta  occ. eigenvalues --   -0.35298  -0.33529  -0.32685  -0.28011  -0.25559
  Beta virt. eigenvalues --   -0.10607  -0.01563   0.02673   0.05672   0.06002
  Beta virt. eigenvalues --    0.07193   0.08877   0.09132   0.10774   0.11867
  Beta virt. eigenvalues --    0.12579   0.14471   0.15239   0.17187   0.18573

 Mulliken charges and spin densities:
               1          2
     1  C   -0.151079   0.000521
     2  C   -0.110376  -0.004017
     3  C   -0.179619   0.002792
     4  C    0.109805  -0.017240
     5  C   -0.169885   0.014615
     6  C   -0.167175   0.001568
     7  H    0.096366  -0.000099
     8  H    0.095208  -0.000660
     9  H    0.086116  -0.000752
    10  H    0.106969  -0.001780
    11  H    0.117250  -0.000611
    12  H    0.120108   0.000153
    13  H    0.098546  -0.000060
    14  H    0.094755  -0.000244
    15  O   -0.070255   0.305428
    16  H    0.105236   0.009960
    17  O   -0.181970   0.690427
 Sum of Mulliken charges =  -0.00000   1.00000

 Dipole moment (field-independent basis, Debye):
    X=             -3.1101    Y=              0.0527    Z=              1.1473  Tot=              3.3154
 Quadrupole moment (field-independent basis, Debye-Ang):
   XX=            -53.1406   YY=            -45.8281   ZZ=            -48.6039
   XY=              0.8186   XZ=              2.7693   YZ=              0.4204

  Exact polarizability:      95.935      -1.312      71.964       4.307       0.580      58.549
 Approx polarizability:     139.297      -1.734      99.376       6.567       0.188      90.694

                      1                      2                      3
                      A                      A                      A
 Frequencies --     76.0001               109.3942               216.5448
 Red. masses --      6.0952                 4.0717                 3.2706
 Frc consts  --      0.0207                 0.0287                 0.0904
 IR Inten    --      1.2770                 0.1971                 1.2765

                      4                      5                      6
                      A                      A                      A
 Frequencies --    265.6829               340.9194               438.1198
 Red. masses --      2.1839                 3.3058                 2.4191
 Frc consts  --      0.0908                 0.2264                 0.2736
 IR Inten    --      1.3330                 2.3789                 0.3592

                      7                      8                      9
                      A                      A                      A
 Frequencies --    455.6590               529.1480               567.5532
 Red. masses --      2.9940                 3.9453                 3.9261
 Frc consts  --      0.3663                 0.6509                 0.7451
 IR Inten    --      4.6160                 6.9404                 3.1676

                     10                     11                     12
                      A                      A                      A
 Frequencies --    696.0192               738.0811               824.1990
 Red. masses --      2.0229                 1.5589                 2.3663
 Frc consts  --      0.5774                 0.5004                 0.9471
 IR Inten    --      8.6008                11.1489                10.0776

                     13                     14                     15
                      A                      A                      A
 Frequencies --    832.2187               885.5125               905.1720
 Red. masses --      3.9754                 2.5139                 1.7002
 Frc consts  --      1.6222                 1.1614                 0.8207
 IR Inten    --      4.6683                 5.5508                21.9435

                     16                     17                     18
                      A                      A                      A
 Frequencies --    945.6874              1015.9000              1018.9935
 Red. masses --      2.2694                 1.2220                 3.2082
 Frc consts  --      1.1958                 0.7430                 1.9627
 IR Inten    --      7.4279                 0.1067                 5.5102

                     19                     20                     21
                      A                      A                      A
 Frequencies --   1064.9139              1074.9161              1109.6045
 Red. masses --      1.8389                 1.9518                 1.8190
 Frc consts  --      1.2287                 1.3288                 1.3195
 IR Inten    --      0.6271                 5.5601                 4.2336

                     22                     23                     24
                      A                      A                      A
 Frequencies --   1166.2429              1177.8565              1184.6488
 Red. masses --      1.0897                 2.6817                 1.8161
 Frc consts  --      0.8732                 2.1920                 1.5017
 IR Inten    --      0.1609                 4.4188                 8.5877

                     25                     26                     27
                      A                      A                      A
 Frequencies --   1262.1925              1281.3140              1327.0037
 Red. masses --      1.2416                 1.1862                 1.1869
 Frc consts  --      1.1654                 1.1474                 1.2314
 IR Inten    --      1.2229                 1.1301                25.1917

                     28                     29                     30
                      A                      A                      A
 Frequencies --   1357.5983              1368.5749              1376.2787
 Red. masses --      1.5661                 1.4818                 1.4819
 Frc consts  --      1.7007                 1.6352                 1.6538
 IR Inten    --      5.9298                 2.3632                 0.4405

                     31                     32                     33
                      A                      A                      A
 Frequencies --   1395.8683              1432.7734              1472.9319
 Red. masses --      1.5219                 1.5529                 1.0872
 Frc consts  --      1.7471                 1.8782                 1.3897
 IR Inten    --      0.0428                 2.6723                 6.1956

                     34                     35                     36
                      A                      A                      A
 Frequencies --   1487.4254              1500.4707              1709.8220
 Red. masses --      1.0858                 1.0936                 6.3165
 Frc consts  --      1.4153                 1.4506                10.8800
 IR Inten    --      7.1349                 5.2115                 7.6430

                     37                     38                     39
                      A                      A                      A
 Frequencies --   2989.0206              3022.7491              3032.4098
 Red. masses --      1.0722                 1.0693                 1.0685
 Frc consts  --      5.6438                 5.7564                 5.7890
 IR Inten    --     22.9804                11.2697                11.9100

                     40                     41                     42
                      A                      A                      A
 Frequencies --   3044.7428              3069.7347              3074.1628
 Red. masses --      1.0794                 1.0864                 1.1005
 Frc consts  --      5.8955                 6.0315                 6.1274
 IR Inten    --     39.1012                17.8495                34.5764

                     43                     44                     45
                      A                      A                      A
 Frequencies --   3083.3531              3140.8394              3169.4221
 Red. masses --      1.0960                 1.0860                 1.0952
 Frc consts  --      6.1390                 6.3123                 6.4820
 IR Inten    --     12.8286                10.5011                20.0356

 - Thermochemistry -
 -------------------
 Temperature   298.150 Kelvin.  Pressure   1.00000 Atm.
 Atom     1 has atomic number  6 and mass  12.00000

 Molecular mass:   113.06025 amu.
 Principal axes and moments of inertia in atomic units:
                           1         2         3
     Eigenvalues --   456.734421148.100531404.60859
           X            0.99981   0.00859   0.01772
           Y           -0.00865   0.99996   0.00319
           Z           -0.01769  -0.00334   0.99984
 This molecule is an asymmetric top.
 Rotational symmetry number  1.
 Warning -- assumption of classical behavior for rotation
           may cause significant error
 Rotational temperatures (Kelvin)      0.18964     0.07544     0.06166
 Rotational constants (GHZ):           3.95140     1.57194     1.28487
 Zero-point vibrational energy     372264.0 (Joules/Mol)
                                   88.97322 (Kcal/Mol)
 Warning -- explicit consideration of   9 degrees of freedom as
           vibrations may cause significant error
 Vibrational temperatures:    109.35   157.39   311.56   382.26   490.51
          (Kelvin)            630.36   655.59   761.33   816.58  1001.42
                             1061.93  1185.84  1197.38  1274.05  1302.34
                             1360.63  1461.65  1466.10  1532.17  1546.56
                             1596.47  1677.96  1694.67  1704.45  1816.01
                             1843.53  1909.26  1953.28  1969.07  1980.16
                             2008.34  2061.44  2119.22  2140.07  2158.84
                             2460.05  4300.53  4349.06  4362.96  4380.71
                             4416.66  4423.03  4436.26  4518.97  4560.09

 Zero-point correction=                           0.141788 (Hartree/Particle)
 Thermal correction to Energy=                    0.149212
 Thermal correction to Enthalpy=                  0.150156
 Thermal correction to Gibbs Free Energy=         0.109088
 Sum of electronic and zero-point Energies=           -384.359722
 Sum of electronic and thermal Energies=              -384.352298
 Sum of electronic and thermal Enthalpies=            -384.351354
 Sum of electronic and thermal Free Energies=         -384.392422

                     E (Thermal)             CV                S
                      KCal/Mol        Cal/Mol-Kelvin    Cal/Mol-Kelvin
 Total                   93.632             27.850             86.435
 Electronic               0.000              0.000              1.377
 Translational            0.889              2.981             40.084
 Rotational               0.889              2.981             28.090
 Vibrational             91.854             21.888             16.884
 Vibration     1          0.599              1.965              3.992
 Vibration     2          0.606              1.942              3.280
 Vibration     3          0.645              1.816              1.988
 Vibration     4          0.672              1.736              1.624
 Vibration     5          0.720              1.594              1.208
 Vibration     6          0.798              1.387              0.833
 Vibration     7          0.814              1.348              0.779
 Vibration     8          0.884              1.185              0.589
 Vibration     9          0.924              1.101              0.509

 Optimization completed.
    -- Stationary point found.
 Normal termination of Gaussian 16 at Sun Apr  3 21:01:28 2022.
