 Gaussian 16, Revision C.01,
 Gaussian 16:  EM64L-G16RevC.01  3-Jul-2019

 ----------------------------------------------------------------------
 #p B3LYP/cc-PVTZ scf(verytight, maxcycles=1000) opt(calcfc, maxcyc=100
 0) freq(hpmodes) int(grid=ultrafine)
 ----------------------------------------------------------------------

 ------
 Mol_04
 ------
 Symbolic Z-matrix:
 Charge =  0 Multiplicity = 1

 SCF Done:  E(RB3LYP) =  -308.703974073     A.U. after   13 cycles
 SCF Done:  E(RB3LYP) =  -308.721106150     A.U. after   12 cycles
 SCF Done:  E(RB3LYP) =  -308.726424097     A.U. after   11 cycles
 SCF Done:  E(RB3LYP) =  -308.727068175     A.U. after   10 cycles
 SCF Done:  E(RB3LYP) =  -308.727166567     A.U. after   10 cycles
 SCF Done:  E(RB3LYP) =  -308.727200087     A.U. after    9 cycles
 SCF Done:  E(RB3LYP) =  -308.727206053     A.U. after    9 cycles
 SCF Done:  E(RB3LYP) =  -308.727206606     A.U. after    7 cycles
 Optimization completed.
    -- Stationary point found.
 Normal termination of Gaussian 16 at Sun Apr  3 20:12:17 2022.

 -------------------------------------------------------------------
 #P Geom=AllCheck Guess=TCheck SCRF=Check GenChk RB3LYP/CC-pVTZ Freq
 -------------------------------------------------------------------

 Structure from the checkpoint file:  "Mol_04.chk"
 ------
 Mol_04
 ------
 Charge =  0 Multiplicity = 1

                         Standard orientation:
 ---------------------------------------------------------------------
 Center     Atomic      Atomic             Coordinates (Angstroms)
 Number     Number       Type             X           Y           Z
 ---------------------------------------------------------------------
      1          6           0       -1.605525   -0.558623    0.098808
      2          6           0       -1.372721    0.910958   -0.128619
      3          6           0       -0.179572    1.485859   -0.001383
      4          6           0        1.010556    0.700217    0.402356
      5          6           0        0.928872   -0.762490    0.363199
      6          6           0       -0.350462   -1.419947   -0.127387
      7          1           0       -0.476049   -2.390560    0.354813
      8          1           0       -0.228873   -1.608485   -1.195466
      9          1           0       -0.054794    2.548371   -0.170250
     10          1           0       -2.233943    1.514663   -0.391422
     11          1           0       -2.408910   -0.908495   -0.552258
     12          1           0       -1.979348   -0.697344    1.120194
     13          8           0        1.696453   -0.054217   -0.621508
     14          1           0        1.684656    1.174652    1.109306
     15          1           0        1.538754   -1.334900    1.055303
 ---------------------------------------------------------------------

 SCF Done:  E(RB3LYP) =  -308.727206606     A.U. after    1 cycles

 The electronic state is 1-A.
 Alpha  occ. eigenvalues --  -19.13286 -10.22714 -10.22613 -10.18430 -10.18349
 Alpha  occ. eigenvalues --  -10.17954 -10.17523  -1.06639  -0.82421  -0.75807
 Alpha  occ. eigenvalues --   -0.69803  -0.63326  -0.60865  -0.52857  -0.50920
 Alpha  occ. eigenvalues --   -0.47076  -0.46008  -0.44443  -0.40891  -0.40325
 Alpha  occ. eigenvalues --   -0.37248  -0.35765  -0.33670  -0.30708  -0.27213
 Alpha  occ. eigenvalues --   -0.25443
 Alpha virt. eigenvalues --   -0.01019   0.03245   0.05674   0.06277   0.08048
 Alpha virt. eigenvalues --    0.08310   0.09178   0.11169   0.12935   0.13304
 Alpha virt. eigenvalues --    0.14040   0.18231   0.19993   0.21488   0.24624

 Mulliken charges:
               1
     1  C   -0.156846
     2  C   -0.115289
     3  C   -0.141280
     4  C    0.065411
     5  C    0.041013
     6  C   -0.153579
     7  H    0.086765
     8  H    0.097025
     9  H    0.109793
    10  H    0.117089
    11  H    0.094580
    12  H    0.097097
    13  O   -0.326127
    14  H    0.089542
    15  H    0.094805
 Sum of Mulliken charges =   0.00000

 Dipole moment (field-independent basis, Debye):
    X=             -1.6571    Y=             -0.2927    Z=              1.4341  Tot=              2.2109
 Quadrupole moment (field-independent basis, Debye-Ang):
   XX=            -43.4193   YY=            -39.0865   ZZ=            -43.4858
   XY=              0.5783   XZ=              3.5892   YZ=             -0.3958

  Exact polarizability:      75.002       3.395      72.459       2.983      -0.603      51.063
 Approx polarizability:     111.954       9.331     101.728       0.229      -0.330      81.120

                      1                      2                      3
                      A                      A                      A
 Frequencies --    110.8949               251.9600               396.5646
 Red. masses --      2.1096                 2.6498                 3.1029
 Frc consts  --      0.0153                 0.0991                 0.2875
 IR Inten    --      0.8144                 3.1517                 5.4118

                      4                      5                      6
                      A                      A                      A
 Frequencies --    485.1589               504.2510               542.6020
 Red. masses --      2.6147                 3.2974                 4.3775
 Frc consts  --      0.3626                 0.4940                 0.7593
 IR Inten    --      3.1507                 6.8636                 2.7501

                      7                      8                      9
                      A                      A                      A
 Frequencies --    712.7121               760.7092               789.7555
 Red. masses --      1.8746                 1.8826                 2.8729
 Frc consts  --      0.5610                 0.6419                 1.0557
 IR Inten    --     17.1952                 3.4225                27.2484

                     10                     11                     12
                      A                      A                      A
 Frequencies --    821.3025               867.1795               938.3363
 Red. masses --      2.9940                 2.9663                 2.7159
 Frc consts  --      1.1899                 1.3143                 1.4089
 IR Inten    --      9.3732                18.6364                 9.2936

                     13                     14                     15
                      A                      A                      A
 Frequencies --    963.6737               976.4022              1005.6381
 Red. masses --      2.6762                 3.4807                 1.3359
 Frc consts  --      1.4643                 1.9551                 0.7960
 IR Inten    --     19.0941                 0.8338                 3.1260

                     16                     17                     18
                      A                      A                      A
 Frequencies --   1048.4479              1060.7655              1090.3557
 Red. masses --      1.5891                 2.3111                 1.3759
 Frc consts  --      1.0292                 1.5321                 0.9638
 IR Inten    --      1.9017                14.5386                 3.7778

                     19                     20                     21
                      A                      A                      A
 Frequencies --   1152.3957              1197.3324              1219.0463
 Red. masses --      1.2855                 1.1639                 1.2114
 Frc consts  --      1.0058                 0.9831                 1.0607
 IR Inten    --      0.4626                 2.0862                 2.0639

                     22                     23                     24
                      A                      A                      A
 Frequencies --   1274.4125              1286.8170              1348.1525
 Red. masses --      1.2293                 1.3044                 1.4502
 Frc consts  --      1.1763                 1.2726                 1.5529
 IR Inten    --      3.4153                 2.0538                 0.1671

                     25                     26                     27
                      A                      A                      A
 Frequencies --   1359.2491              1395.9813              1427.8540
 Red. masses --      1.2337                 1.4950                 1.5395
 Frc consts  --      1.3429                 1.7165                 1.8493
 IR Inten    --      1.5812                 0.8665                 1.3569

                     28                     29                     30
                      A                      A                      A
 Frequencies --   1458.9387              1478.9254              1487.5854
 Red. masses --      2.7684                 1.1637                 1.0911
 Frc consts  --      3.4718                 1.4996                 1.4225
 IR Inten    --     11.8342                 9.6730                 6.7413

                     31                     32                     33
                      A                      A                      A
 Frequencies --   1705.5101              2992.9448              3037.3061
 Red. masses --      6.3445                 1.0729                 1.0635
 Frc consts  --     10.8732                 5.6624                 5.7804
 IR Inten    --      5.2238                24.4467                17.9434

                     34                     35                     36
                      A                      A                      A
 Frequencies --   3052.6807              3075.4345              3104.4803
 Red. masses --      1.0839                 1.1033                 1.0863
 Frc consts  --      5.9511                 6.1483                 6.1683
 IR Inten    --     36.2723                12.9939                20.1823

                     37                     38                     39
                      A                      A                      A
 Frequencies --   3115.0507              3142.7394              3167.5092
 Red. masses --      1.0913                 1.0853                 1.0965
 Frc consts  --      6.2391                 6.3155                 6.4818
 IR Inten    --     55.0219                10.7543                25.9269

 - Thermochemistry -
 -------------------
 Temperature   298.150 Kelvin.  Pressure   1.00000 Atm.
 Atom     1 has atomic number  6 and mass  12.00000

 Molecular mass:    96.05751 amu.
 Principal axes and moments of inertia in atomic units:
                           1         2         3
     Eigenvalues --   409.72584 571.94381 868.93093
           X            0.99905   0.03414   0.02723
           Y           -0.03405   0.99941  -0.00379
           Z           -0.02734   0.00286   0.99962
 This molecule is an asymmetric top.
 Rotational symmetry number  1.
 Rotational temperatures (Kelvin)      0.21139     0.15144     0.09968
 Rotational constants (GHZ):           4.40475     3.15545     2.07697
 Zero-point vibrational energy     333800.3 (Joules/Mol)
                                   79.78019 (Kcal/Mol)
 Warning -- explicit consideration of   6 degrees of freedom as
           vibrations may cause significant error
 Vibrational temperatures:    159.55   362.51   570.57   698.04   725.50
          (Kelvin)            780.68  1025.43  1094.49  1136.28  1181.67
                             1247.68  1350.06  1386.51  1404.82  1446.89
                             1508.48  1526.20  1568.78  1658.04  1722.69
                             1753.94  1833.60  1851.44  1939.69  1955.66
                             2008.51  2054.36  2099.09  2127.84  2140.30
                             2453.85  4306.18  4370.01  4392.13  4424.86
                             4466.65  4481.86  4521.70  4557.34

 Zero-point correction=                           0.127138 (Hartree/Particle)
 Thermal correction to Energy=                    0.132923
 Thermal correction to Enthalpy=                  0.133867
 Thermal correction to Gibbs Free Energy=         0.097612
 Sum of electronic and zero-point Energies=           -308.600069
 Sum of electronic and thermal Energies=              -308.594283
 Sum of electronic and thermal Enthalpies=            -308.593339
 Sum of electronic and thermal Free Energies=         -308.629595

                     E (Thermal)             CV                S
                      KCal/Mol        Cal/Mol-Kelvin    Cal/Mol-Kelvin
 Total                   83.411             22.432             76.307
 Electronic               0.000              0.000              0.000
 Translational            0.889              2.981             39.598
 Rotational               0.889              2.981             26.812
 Vibrational             81.633             16.471              9.897
 Vibration     1          0.607              1.940              3.253
 Vibration     2          0.664              1.759              1.717
 Vibration     3          0.763              1.477              0.975
 Vibration     4          0.841              1.283              0.696
 Vibration     5          0.860              1.241              0.648
 Vibration     6          0.898              1.156              0.560

 Optimization completed.
    -- Stationary point found.
 Normal termination of Gaussian 16 at Sun Apr  3 20:24:32 2022.
