 Gaussian 16, Revision C.01,
 Gaussian 16:  EM64L-G16RevC.01  3-Jul-2019

 ----------------------------------------------------------------------
 #p B3LYP/cc-PVTZ scf(verytight, maxcycles=1000) opt(calcfc, maxcyc=100
 0) freq(hpmodes) int(grid=ultrafine)
 ----------------------------------------------------------------------

 ------
 Mol_05
 ------
 Symbolic Z-matrix:
 Charge =  0 Multiplicity = 1

 SCF Done:  E(RB3LYP) =  -233.500874251     A.U. after   12 cycles
 SCF Done:  E(RB3LYP) =  -233.504297657     A.U. after   10 cycles
 SCF Done:  E(RB3LYP) =  -233.504980085     A.U. after    9 cycles
 SCF Done:  E(RB3LYP) =  -233.505090309     A.U. after    9 cycles
 SCF Done:  E(RB3LYP) =  -233.505098884     A.U. after    8 cycles
 SCF Done:  E(RB3LYP) =  -233.505098938     A.U. after    6 cycles
 Optimization completed.
    -- Stationary point found.
 Normal termination of Gaussian 16 at Sun Apr  3 19:58:43 2022.

 -------------------------------------------------------------------
 #P Geom=AllCheck Guess=TCheck SCRF=Check GenChk RB3LYP/CC-pVTZ Freq
 -------------------------------------------------------------------

 Structure from the checkpoint file:  "Mol_05.chk"
 ------
 Mol_05
 ------
 Charge =  0 Multiplicity = 1

                         Standard orientation:
 ---------------------------------------------------------------------
 Center     Atomic      Atomic             Coordinates (Angstroms)
 Number     Number       Type             X           Y           Z
 ---------------------------------------------------------------------
      1          6           0       -1.190453   -0.728182   -0.241210
      2          6           0        0.113603   -1.419299    0.063434
      3          6           0        1.254089   -0.723538    0.106387
      4          6           0        1.254089    0.723538   -0.106387
      5          6           0        0.113603    1.419299   -0.063434
      6          6           0       -1.190453    0.728182    0.241210
      7          1           0       -2.028422    1.269349   -0.200715
      8          1           0       -1.351022    0.756441    1.327964
      9          1           0        0.117014    2.495348   -0.184809
     10          1           0        2.198996   -1.223417    0.278247
     11          1           0        0.117013   -2.495348    0.184809
     12          1           0       -2.028422   -1.269349    0.200715
     13          1           0       -1.351022   -0.756441   -1.327964
     14          1           0        2.198996    1.223417   -0.278247
 ---------------------------------------------------------------------

 SCF Done:  E(RB3LYP) =  -233.505098938     A.U. after    1 cycles

 The electronic state is 1-A.
 Alpha  occ. eigenvalues --  -10.17578 -10.17556 -10.17225 -10.17224 -10.16915
 Alpha  occ. eigenvalues --  -10.16881  -0.84124  -0.74380  -0.74339  -0.62077
 Alpha  occ. eigenvalues --   -0.58979  -0.50964  -0.48914  -0.44465  -0.42573
 Alpha  occ. eigenvalues --   -0.41777  -0.39356  -0.37263  -0.33615  -0.32019
 Alpha  occ. eigenvalues --   -0.31106  -0.21737
 Alpha virt. eigenvalues --   -0.03111   0.03681   0.05857   0.07112   0.08290
 Alpha virt. eigenvalues --    0.08346   0.09996   0.10134   0.12777   0.13440
 Alpha virt. eigenvalues --    0.18462   0.21091   0.21616   0.25725   0.26381

 Mulliken charges:
               1
     1  C   -0.140871
     2  C   -0.131761
     3  C   -0.121846
     4  C   -0.121846
     5  C   -0.131761
     6  C   -0.140871
     7  H    0.089707
     8  H    0.087978
     9  H    0.112341
    10  H    0.104451
    11  H    0.112341
    12  H    0.089707
    13  H    0.087978
    14  H    0.104451
 Sum of Mulliken charges =  -0.00000

 Dipole moment (field-independent basis, Debye):
    X=             -0.4555    Y=              0.0000    Z=             -0.0000  Tot=              0.4555
 Quadrupole moment (field-independent basis, Debye-Ang):
   XX=            -34.9030   YY=            -35.4119   ZZ=            -39.4851
   XY=             -0.0000   XZ=              0.0000   YZ=             -0.3692

  Exact polarizability:      76.062       0.000      76.356       0.000      -0.930      45.125
 Approx polarizability:     115.120       0.000     116.495       0.000      -1.226      70.016

                      1                      2                      3
                      A                      A                      A
 Frequencies --    192.8098               302.3568               481.7906
 Red. masses --      1.7779                 2.1753                 2.6764
 Frc consts  --      0.0389                 0.1172                 0.3660
 IR Inten    --      0.5227                 0.9862                 5.9714

                      4                      5                      6
                      A                      A                      A
 Frequencies --    523.8932               574.1460               674.6680
 Red. masses --      2.1051                 5.3668                 1.2926
 Frc consts  --      0.3404                 1.0423                 0.3467
 IR Inten    --      0.1496                 0.1456                63.9982

                      7                      8                      9
                      A                      A                      A
 Frequencies --    764.4143               781.3944               853.3941
 Red. masses --      1.6412                 1.5045                 3.3115
 Frc consts  --      0.5650                 0.5412                 1.4209
 IR Inten    --     10.7519                 1.0451                 0.8816

                     10                     11                     12
                      A                      A                      A
 Frequencies --    930.4329               963.3190               981.5269
 Red. masses --      2.2879                 2.7837                 1.3733
 Frc consts  --      1.1669                 1.5220                 0.7795
 IR Inten    --      7.9076                 1.2113                 2.1674

                     13                     14                     15
                      A                      A                      A
 Frequencies --    996.0674              1015.2611              1046.6052
 Red. masses --      1.2510                 3.0455                 2.0685
 Frc consts  --      0.7313                 1.8496                 1.3349
 IR Inten    --      0.0013                 2.3737                 1.3528

                     16                     17                     18
                      A                      A                      A
 Frequencies --   1069.1296              1175.3067              1191.3360
 Red. masses --      1.7310                 1.0329                 1.1433
 Frc consts  --      1.1657                 0.8406                 0.9560
 IR Inten    --      2.5954                 0.0723                 5.1033

                     19                     20                     21
                      A                      A                      A
 Frequencies --   1205.2056              1269.4904              1359.6232
 Red. masses --      1.1006                 1.2183                 1.5408
 Frc consts  --      0.9419                 1.1568                 1.6782
 IR Inten    --      1.1408                 5.2843                 1.4517

                     22                     23                     24
                      A                      A                      A
 Frequencies --   1363.2187              1405.9565              1443.7607
 Red. masses --      1.3015                 1.5599                 1.6563
 Frc consts  --      1.4250                 1.8167                 2.0341
 IR Inten    --      1.0986                 2.5034                 0.7586

                     25                     26                     27
                      A                      A                      A
 Frequencies --   1471.7013              1482.0943              1637.3882
 Red. masses --      1.0783                 1.1100                 6.9812
 Frc consts  --      1.3760                 1.4366                11.0276
 IR Inten    --      4.1572                 4.7109                 1.6345

                     28                     29                     30
                      A                      A                      A
 Frequencies --   1703.4535              2957.5285              2971.0729
 Red. masses --      5.3672                 1.0750                 1.0708
 Frc consts  --      9.1760                 5.5402                 5.5693
 IR Inten    --      0.1974                14.2487                58.2291

                     31                     32                     33
                      A                      A                      A
 Frequencies --   3057.7442              3058.6910              3148.6677
 Red. masses --      1.0903                 1.0841                 1.0839
 Frc consts  --      6.0063                 5.9757                 6.3311
 IR Inten    --     19.7362                39.1461                 0.4385

                     34                     35                     36
                      A                      A                      A
 Frequencies --   3155.3902              3170.1798              3179.4596
 Red. masses --      1.0858                 1.0961                 1.0982
 Frc consts  --      6.3696                 6.4905                 6.5408
 IR Inten    --      5.4410                44.2967                18.4996

 - Thermochemistry -
 -------------------
 Temperature   298.150 Kelvin.  Pressure   1.00000 Atm.
 Atom     1 has atomic number  6 and mass  12.00000

 Molecular mass:    80.06260 amu.
 Principal axes and moments of inertia in atomic units:
                           1         2         3
     Eigenvalues --   354.35751 354.90733 669.08931
           X            1.00000  -0.00000  -0.00000
           Y            0.00000   1.00000  -0.00117
           Z            0.00000   0.00117   1.00000
 This molecule is an asymmetric top.
 Rotational symmetry number  1.
 Rotational temperatures (Kelvin)      0.24443     0.24405     0.12945
 Rotational constants (GHZ):           5.09300     5.08511     2.69731
 Zero-point vibrational energy     320350.8 (Joules/Mol)
                                   76.56569 (Kcal/Mol)
 Warning -- explicit consideration of   5 degrees of freedom as
           vibrations may cause significant error
 Vibrational temperatures:    277.41   435.02   693.19   753.77   826.07
          (Kelvin)            970.70  1099.82  1124.25  1227.84  1338.69
                             1386.00  1412.20  1433.12  1460.73  1505.83
                             1538.24  1691.00  1714.07  1734.02  1826.51
                             1956.19  1961.37  2022.86  2077.25  2117.45
                             2132.40  2355.84  2450.89  4255.22  4274.71
                             4399.41  4400.77  4530.23  4539.90  4561.18
                             4574.53

 Zero-point correction=                           0.122015 (Hartree/Particle)
 Thermal correction to Energy=                    0.127190
 Thermal correction to Enthalpy=                  0.128134
 Thermal correction to Gibbs Free Energy=         0.093783
 Sum of electronic and zero-point Energies=           -233.383084
 Sum of electronic and thermal Energies=              -233.377909
 Sum of electronic and thermal Enthalpies=            -233.376965
 Sum of electronic and thermal Free Energies=         -233.411316

                     E (Thermal)             CV                S
                      KCal/Mol        Cal/Mol-Kelvin    Cal/Mol-Kelvin
 Total                   79.813             20.028             72.300
 Electronic               0.000              0.000              0.000
 Translational            0.889              2.981             39.055
 Rotational               0.889              2.981             25.934
 Vibrational             78.036             14.067              7.310
 Vibration     1          0.635              1.850              2.201
 Vibration     2          0.694              1.669              1.404
 Vibration     3          0.838              1.290              0.705
 Vibration     4          0.879              1.197              0.601
 Vibration     5          0.930              1.087              0.496

 Optimization completed.
    -- Stationary point found.
 Normal termination of Gaussian 16 at Sun Apr  3 20:04:59 2022.
