 Gaussian 16, Revision B.01,
 Gaussian 16:  ES64L-G16RevB.01 20-Dec-2017

 ----------------------------------------------------------------------
 # opt=(calcfc,qst2,modredundant) freq ub3lyp cc-pvtz+d int=grid=ultraf
 ine
 ----------------------------------------------------------------------

 ---------------------------------------
 cyclohexenylO2-H-Shift-TS3-QST2-b3lyp-c
 ---------------------------------------
 Symbolic Z-matrix:
 Charge =  0 Multiplicity = 2

 -------------------
 Title Card Required
 -------------------
 Symbolic Z-matrix:
 Charge =  0 Multiplicity = 2

 SCF Done:  E(UB3LYP) =  -384.365951649     A.U. after   22 cycles
 SCF Done:  E(UB3LYP) =  -384.377141511     A.U. after   19 cycles
 SCF Done:  E(UB3LYP) =  -384.392154339     A.U. after   18 cycles
 SCF Done:  E(UB3LYP) =  -384.408101754     A.U. after   17 cycles
 SCF Done:  E(UB3LYP) =  -384.424586045     A.U. after   16 cycles
 SCF Done:  E(UB3LYP) =  -384.429468991     A.U. after   17 cycles
 SCF Done:  E(UB3LYP) =  -384.436517759     A.U. after   17 cycles
 SCF Done:  E(UB3LYP) =  -384.441408684     A.U. after   16 cycles
 SCF Done:  E(UB3LYP) =  -384.440928933     A.U. after   16 cycles
 SCF Done:  E(UB3LYP) =  -384.442033918     A.U. after   16 cycles
 SCF Done:  E(UB3LYP) =  -384.441154207     A.U. after   17 cycles
 SCF Done:  E(UB3LYP) =  -384.442334161     A.U. after   17 cycles
 SCF Done:  E(UB3LYP) =  -384.442103796     A.U. after   16 cycles
 SCF Done:  E(UB3LYP) =  -384.442612315     A.U. after   15 cycles
 SCF Done:  E(UB3LYP) =  -384.442612511     A.U. after   14 cycles
 SCF Done:  E(UB3LYP) =  -384.442641746     A.U. after   13 cycles
 SCF Done:  E(UB3LYP) =  -384.442641770     A.U. after   12 cycles
 SCF Done:  E(UB3LYP) =  -384.442642095     A.U. after    8 cycles
 Optimization completed.
    -- Stationary point found.
 Normal termination of Gaussian 16 at Thu May 12 17:00:27 2022.

 ---------------------------------------------------------------------
 #N Geom=AllCheck Guess=TCheck SCRF=Check GenChk UB3LYP/CC-pVTZ+d Freq
 ---------------------------------------------------------------------

 Structure from the checkpoint file:  "cyclohexenylO2-H-Shift-TS3-QST2-b3lyp-c.chk"
 ---------------------------------------
 cyclohexenylO2-H-Shift-TS3-QST2-b3lyp-c
 ---------------------------------------
 Charge =  0 Multiplicity = 2

                         Standard orientation:
 ---------------------------------------------------------------------
 Center     Atomic      Atomic             Coordinates (Angstroms)
 Number     Number       Type             X           Y           Z
 ---------------------------------------------------------------------
      1          6           0       -2.030809   -0.573900   -0.158577
      2          6           0       -1.766664    0.904443   -0.142938
      3          6           0       -0.585019    1.449468    0.137518
      4          6           0        0.606261    0.625806    0.513538
      5          6           0        0.291000   -0.858085    0.710485
      6          6           0       -0.727351   -1.397498   -0.251784
      7          1           0       -0.930928   -2.452159   -0.068235
      8          1           0       -0.342618   -1.302824   -1.269944
      9          1           0        0.202073   -1.191302    1.741654
     10          1           0        1.569264   -1.096464    0.287453
     11          1           0       -0.459078    2.525020    0.127670
     12          1           0       -2.605473    1.552933   -0.370628
     13          1           0       -2.682138   -0.821716   -1.000144
     14          1           0       -2.589181   -0.851890    0.742359
     15          8           0        1.561521    0.636275   -0.575806
     16          1           0        1.097259    1.021835    1.407694
     17          8           0        2.440518   -0.421879   -0.230110
 ---------------------------------------------------------------------

 SCF Done:  E(UB3LYP) =  -384.442642095     A.U. after    1 cycles

 The electronic state is 2-A.
 Alpha  occ. eigenvalues --  -19.18774 -19.18192 -10.24253 -10.20687 -10.19633
 Alpha  occ. eigenvalues --  -10.19527 -10.18948 -10.18699  -1.12729  -0.88653
 Alpha  occ. eigenvalues --   -0.84363  -0.76894  -0.75123  -0.64004  -0.61709
 Alpha  occ. eigenvalues --   -0.54823  -0.52520  -0.51246  -0.47559  -0.46110
 Alpha  occ. eigenvalues --   -0.44177  -0.42644  -0.41305  -0.39555  -0.38815
 Alpha  occ. eigenvalues --   -0.35953  -0.33786  -0.33357  -0.28244  -0.25567
 Alpha  occ. eigenvalues --   -0.24288
 Alpha virt. eigenvalues --   -0.01918   0.02552   0.05207   0.05382   0.05912
 Alpha virt. eigenvalues --    0.07505   0.08867   0.09799   0.11159   0.12312
 Alpha virt. eigenvalues --    0.13641   0.16255   0.17674   0.18725   0.20158

  Beta  occ. eigenvalues --  -19.18602 -19.16960 -10.24260 -10.19836 -10.19546
  Beta  occ. eigenvalues --  -10.19506 -10.18966 -10.18682  -1.11453  -0.87190
  Beta  occ. eigenvalues --   -0.83402  -0.76167  -0.74484  -0.63812  -0.60810
  Beta  occ. eigenvalues --   -0.53564  -0.52208  -0.50242  -0.46916  -0.45783
  Beta  occ. eigenvalues --   -0.43802  -0.42286  -0.39705  -0.39095  -0.37566
  Beta  occ. eigenvalues --   -0.35225  -0.33128  -0.32397  -0.27787  -0.23885
  Beta virt. eigenvalues --   -0.13105  -0.01696   0.02636   0.05463   0.05944
  Beta virt. eigenvalues --    0.05990   0.07623   0.08944   0.10028   0.11235
  Beta virt. eigenvalues --    0.12433   0.14233   0.16961   0.18575   0.18927

 Mulliken charges and spin densities:
               1          2
     1  C   -0.148701   0.032929
     2  C   -0.115576   0.012293
     3  C   -0.169111   0.005096
     4  C    0.141603   0.004315
     5  C   -0.188728   0.540187
     6  C   -0.165380  -0.019950
     7  H    0.101618   0.000888
     8  H    0.106770   0.011155
     9  H    0.115016  -0.010586
    10  H    0.182924  -0.041375
    11  H    0.122560   0.003366
    12  H    0.121850  -0.000604
    13  H    0.100729   0.003550
    14  H    0.097878   0.002032
    15  O   -0.172106   0.048934
    16  H    0.089004   0.001896
    17  O   -0.220351   0.405872
 Sum of Mulliken charges =  -0.00000   1.00000

 Dipole moment (field-independent basis, Debye):
    X=             -3.4692    Y=             -0.5458    Z=              1.4934  Tot=              3.8162
 Quadrupole moment (field-independent basis, Debye-Ang):
   XX=            -52.9517   YY=            -45.4933   ZZ=            -48.7002
   XY=              0.1956   XZ=              3.2928   YZ=              0.2089

  Exact polarizability: 102.043   5.108  78.446   0.669  -1.331  59.701
 Approx polarizability: 156.849  10.115 115.690  -3.290  -5.431  95.579

 ******    1 imaginary frequencies (negative Signs) ******

                      1                      2                      3
                      A                      A                      A
 Frequencies --  -2159.9649               114.2653               192.5710
 Red. masses --      1.1041                 3.3686                 3.5755
 Frc consts  --      3.0350                 0.0259                 0.0781
 IR Inten    --    817.2629                 1.2954                 1.3062

                      4                      5                      6
                      A                      A                      A
 Frequencies --    244.2835               289.2540               429.1863
 Red. masses --      2.9372                 3.7499                 2.8099
 Frc consts  --      0.1033                 0.1849                 0.3050
 IR Inten    --      0.6336                 2.0561                 3.3169

                      7                      8                      9
                      A                      A                      A
 Frequencies --    461.1906               521.9295               586.8638
 Red. masses --      3.4860                 3.6115                 2.3805
 Frc consts  --      0.4369                 0.5796                 0.4830
 IR Inten    --      4.5615                 1.9234                12.0024

                     10                     11                     12
                      A                      A                      A
 Frequencies --    677.9427               728.0027               744.1971
 Red. masses --      2.9734                 1.9985                 1.8774
 Frc consts  --      0.8052                 0.6241                 0.6126
 IR Inten    --      2.6374                 9.6285                 7.2453

                     13                     14                     15
                      A                      A                      A
 Frequencies --    825.2366               850.4932               883.2391
 Red. masses --      2.5153                 3.1670                 2.4875
 Frc consts  --      1.0093                 1.3497                 1.1433
 IR Inten    --      4.4434                 0.5913                 1.8341

                     16                     17                     18
                      A                      A                      A
 Frequencies --    920.3935               943.4556               972.3340
 Red. masses --      3.4558                 3.0328                 2.7405
 Frc consts  --      1.7248                 1.5905                 1.5266
 IR Inten    --     13.3824                25.3850                20.2512

                     19                     20                     21
                      A                      A                      A
 Frequencies --    992.3649              1010.9271              1050.6843
 Red. masses --      2.9369                 1.2274                 2.0397
 Frc consts  --      1.7041                 0.7390                 1.3267
 IR Inten    --      2.2988                 1.1895                 9.7633

                     22                     23                     24
                      A                      A                      A
 Frequencies --   1071.3579              1106.8958              1137.6790
 Red. masses --      1.9584                 1.9832                 1.0998
 Frc consts  --      1.3244                 1.4316                 0.8387
 IR Inten    --      0.9405                 6.2129                12.1974

                     25                     26                     27
                      A                      A                      A
 Frequencies --   1172.7863              1218.7674              1257.0187
 Red. masses --      1.1400                 1.2271                 1.2481
 Frc consts  --      0.9238                 1.0739                 1.1619
 IR Inten    --      2.2779                 8.6190                 6.3137

                     28                     29                     30
                      A                      A                      A
 Frequencies --   1309.8600              1321.2501              1354.0180
 Red. masses --      1.2097                 1.2676                 1.3561
 Frc consts  --      1.2228                 1.3038                 1.4648
 IR Inten    --      8.1328                 1.0562                 0.6213

                     31                     32                     33
                      A                      A                      A
 Frequencies --   1368.1685              1394.1768              1423.3472
 Red. masses --      1.5682                 1.5508                 1.5932
 Frc consts  --      1.7296                 1.7760                 1.9017
 IR Inten    --     10.3905                 0.8926                 2.7346

                     34                     35                     36
                      A                      A                      A
 Frequencies --   1476.0250              1492.3647              1701.3982
 Red. masses --      1.0861                 1.1070                 6.2604
 Frc consts  --      1.3942                 1.4527                10.6773
 IR Inten    --      5.0185                 5.5600                 3.5693

                     37                     38                     39
                      A                      A                      A
 Frequencies --   1717.0308              3001.3496              3013.1543
 Red. masses --      1.0448                 1.0690                 1.0835
 Frc consts  --      1.8148                 5.6737                 5.7962
 IR Inten    --     25.6335                28.2863                37.2282

                     40                     41                     42
                      A                      A                      A
 Frequencies --   3030.8031              3047.2850              3082.1471
 Red. masses --      1.0657                 1.0868                 1.0996
 Frc consts  --      5.7678                 5.9463                 6.1544
 IR Inten    --      6.6442                29.4226                18.1727

                     43                     44                     45
                      A                      A                      A
 Frequencies --   3113.4017              3141.3124              3168.1794
 Red. masses --      1.0882                 1.0856                 1.0953
 Frc consts  --      6.2147                 6.3118                 6.4773
 IR Inten    --     24.3009                 8.9198                17.4065

 - Thermochemistry -
 -------------------
 Temperature   298.150 Kelvin.  Pressure   1.00000 Atm.
 Atom     1 has atomic number  6 and mass  12.00000

 Molecular mass:   113.06025 amu.
 Principal axes and moments of inertia in atomic units:
                           1         2         3
     Eigenvalues --   472.192281027.976411319.59924
           X            0.99980   0.00768   0.01850
           Y           -0.00786   0.99992   0.00962
           Z           -0.01843  -0.00976   0.99978
 This molecule is an asymmetric top.
 Rotational symmetry number  1.
 Warning -- assumption of classical behavior for rotation
           may cause significant error
 Rotational temperatures (Kelvin)      0.18343     0.08426     0.06564
 Rotational constants (GHZ):           3.82205     1.75563     1.36764
    1 imaginary frequencies ignored.
 Zero-point vibrational energy     356239.5 (Joules/Mol)
                                   85.14328 (Kcal/Mol)
 Warning -- explicit consideration of   8 degrees of freedom as
           vibrations may cause significant error
 Vibrational temperatures:    164.40   277.07   351.47   416.17   617.50
          (Kelvin)            663.55   750.94   844.37   975.41  1047.43
                             1070.73  1187.33  1223.67  1270.78  1324.24
                             1357.42  1398.97  1427.79  1454.50  1511.70
                             1541.45  1592.58  1636.87  1687.38  1753.53
                             1808.57  1884.60  1900.98  1948.13  1968.49
                             2005.91  2047.88  2123.67  2147.18  2447.93
                             2470.42  4318.27  4335.26  4360.65  4384.36
                             4434.52  4479.49  4519.65  4558.30

 Zero-point correction=                           0.135684 (Hartree/Particle)
 Thermal correction to Energy=                    0.142580
 Thermal correction to Enthalpy=                  0.143525
 Thermal correction to Gibbs Free Energy=         0.103988
 Sum of electronic and zero-point Energies=           -384.306958
 Sum of electronic and thermal Energies=              -384.300062
 Sum of electronic and thermal Enthalpies=            -384.299118
 Sum of electronic and thermal Free Energies=         -384.338654

                     E (Thermal)             CV                S
                      KCal/Mol        Cal/Mol-Kelvin    Cal/Mol-Kelvin
 Total                   89.471             27.095             83.212
 Electronic               0.000              0.000              1.377
 Translational            0.889              2.981             40.084
 Rotational               0.889              2.981             27.951
 Vibrational             87.693             21.133             13.800
 Vibration     1          0.607              1.938              3.195
 Vibration     2          0.635              1.850              2.203
 Vibration     3          0.660              1.772              1.771
 Vibration     4          0.686              1.694              1.478
 Vibration     5          0.791              1.407              0.861
 Vibration     6          0.819              1.336              0.763
 Vibration     7          0.877              1.201              0.606
 Vibration     8          0.944              1.060              0.473

 Optimization completed.
    -- Stationary point found.
 Normal termination of Gaussian 16 at Thu May 12 17:07:05 2022.
