 Gaussian 16, Revision B.01,
 Gaussian 16:  ES64L-G16RevB.01 20-Dec-2017

 ----------------------------------------------------------------------
 # opt=(calcfc,qst2,modredundant) freq ub3lyp cc-pvtz+d int=grid=ultraf
 ine
 ----------------------------------------------------------------------

 -----------------------------------------
 QOOH-1-cyclohexenyl-OOH-Elim-QST2-b3lyp-c
 -----------------------------------------
 Symbolic Z-matrix:
 Charge =  0 Multiplicity = 2

 -------------------
 Title Card Required
 -------------------
 Symbolic Z-matrix:
 Charge =  0 Multiplicity = 2

 SCF Done:  E(UB3LYP) =  -384.442528233     A.U. after   25 cycles
 SCF Done:  E(UB3LYP) =  -384.446620566     A.U. after   23 cycles
 SCF Done:  E(UB3LYP) =  -384.448160782     A.U. after   22 cycles
 SCF Done:  E(UB3LYP) =  -384.449065555     A.U. after   21 cycles
 SCF Done:  E(UB3LYP) =  -384.450270586     A.U. after   21 cycles
 SCF Done:  E(UB3LYP) =  -384.454915889     A.U. after   18 cycles
 SCF Done:  E(UB3LYP) =  -384.457929503     A.U. after   19 cycles
 SCF Done:  E(UB3LYP) =  -384.460080913     A.U. after   15 cycles
 SCF Done:  E(UB3LYP) =  -384.460329682     A.U. after   18 cycles
 SCF Done:  E(UB3LYP) =  -384.458234502     A.U. after   18 cycles
 SCF Done:  E(UB3LYP) =  -384.457773197     A.U. after   16 cycles
 SCF Done:  E(UB3LYP) =  -384.457496232     A.U. after   17 cycles
 SCF Done:  E(UB3LYP) =  -384.457112599     A.U. after   17 cycles
 SCF Done:  E(UB3LYP) =  -384.457688706     A.U. after   16 cycles
 SCF Done:  E(UB3LYP) =  -384.457890245     A.U. after   14 cycles
 SCF Done:  E(UB3LYP) =  -384.457912401     A.U. after   16 cycles
 SCF Done:  E(UB3LYP) =  -384.457914806     A.U. after   11 cycles
 SCF Done:  E(UB3LYP) =  -384.457915014     A.U. after   11 cycles
 SCF Done:  E(UB3LYP) =  -384.457915179     A.U. after   10 cycles
 Optimization completed.
    -- Stationary point found.
 Normal termination of Gaussian 16 at Thu May 12 22:09:53 2022.

 ---------------------------------------------------------------------
 #N Geom=AllCheck Guess=TCheck SCRF=Check GenChk UB3LYP/CC-pVTZ+d Freq
 ---------------------------------------------------------------------

 Structure from the checkpoint file:  "QOOH-1-cyclohexenyl-OOH-Elim-QST2-b3lyp-c.chk"
 -----------------------------------------
 QOOH-1-cyclohexenyl-OOH-Elim-QST2-b3lyp-c
 -----------------------------------------
 Charge =  0 Multiplicity = 2

                         Standard orientation:
 ---------------------------------------------------------------------
 Center     Atomic      Atomic             Coordinates (Angstroms)
 Number     Number       Type             X           Y           Z
 ---------------------------------------------------------------------
      1          6           0       -2.299070   -0.196085   -0.213970
      2          6           0       -1.655256    1.161478   -0.165435
      3          6           0       -0.408862    1.347724    0.272420
      4          6           0        0.416180    0.224073    0.732710
      5          6           0       -0.094132   -1.062846    0.625645
      6          6           0       -1.261076   -1.328111   -0.270785
      7          1           0       -1.724158   -2.287033   -0.035462
      8          1           0       -0.889539   -1.411158   -1.302161
      9          1           0        0.436548   -1.891691    1.074707
     10          1           0        3.135750   -0.968796   -0.441634
     11          1           0        0.027237    2.336439    0.307418
     12          1           0       -2.253785    2.013515   -0.465524
     13          1           0       -2.969641   -0.263827   -1.072610
     14          1           0       -2.936286   -0.314311    0.671643
     15          8           0        1.736237    0.255144   -0.649838
     16          1           0        1.158986    0.430365    1.490083
     17          8           0        2.992287   -0.070256   -0.113908
 ---------------------------------------------------------------------

 SCF Done:  E(UB3LYP) =  -384.457915179     A.U. after    1 cycles

 The electronic state is 2-A.
 Alpha  occ. eigenvalues --  -19.17929 -19.16809 -10.20744 -10.19160 -10.18506
 Alpha  occ. eigenvalues --  -10.18403 -10.18316 -10.17577  -1.10833  -0.86456
 Alpha  occ. eigenvalues --   -0.83312  -0.75680  -0.75174  -0.63172  -0.60495
 Alpha  occ. eigenvalues --   -0.52054  -0.51099  -0.50249  -0.45632  -0.44305
 Alpha  occ. eigenvalues --   -0.43254  -0.42621  -0.41712  -0.40208  -0.38285
 Alpha  occ. eigenvalues --   -0.34788  -0.33079  -0.30765  -0.27064  -0.25640
 Alpha  occ. eigenvalues --   -0.21048
 Alpha virt. eigenvalues --   -0.03176   0.02794   0.03892   0.05972   0.06676
 Alpha virt. eigenvalues --    0.07637   0.08632   0.09460   0.09751   0.10474
 Alpha virt. eigenvalues --    0.13159   0.13259   0.17892   0.20104   0.21032

  Beta  occ. eigenvalues --  -19.17701 -19.15446 -10.20939 -10.18480 -10.18446
  Beta  occ. eigenvalues --  -10.18362 -10.18285 -10.17532  -1.09453  -0.85593
  Beta  occ. eigenvalues --   -0.81591  -0.75226  -0.74587  -0.63061  -0.59859
  Beta  occ. eigenvalues --   -0.51842  -0.50428  -0.49781  -0.45332  -0.43996
  Beta  occ. eigenvalues --   -0.42339  -0.42211  -0.40522  -0.38507  -0.37532
  Beta  occ. eigenvalues --   -0.34571  -0.32963  -0.29820  -0.25560  -0.23145
  Beta virt. eigenvalues --   -0.09762  -0.01990   0.02889   0.04096   0.06301
  Beta virt. eigenvalues --    0.06857   0.07850   0.09029   0.09808   0.10096
  Beta virt. eigenvalues --    0.10725   0.13229   0.13584   0.17952   0.20331

 Mulliken charges and spin densities:
               1          2
     1  C   -0.142533   0.010169
     2  C   -0.117576  -0.030756
     3  C   -0.121603   0.025467
     4  C    0.015495  -0.110701
     5  C   -0.124830   0.590550
     6  C   -0.142656  -0.028375
     7  H    0.092951   0.004198
     8  H    0.095283   0.037509
     9  H    0.117800  -0.018814
    10  H    0.224363  -0.000977
    11  H    0.113627  -0.001008
    12  H    0.116985   0.000935
    13  H    0.093774  -0.000293
    14  H    0.093582   0.002556
    15  O   -0.241078   0.438825
    16  H    0.131580   0.009272
    17  O   -0.205162   0.071443
 Sum of Mulliken charges =  -0.00000   1.00000

 Dipole moment (field-independent basis, Debye):
    X=             -1.7157    Y=             -1.8128    Z=              0.4468  Tot=              2.5356
 Quadrupole moment (field-independent basis, Debye-Ang):
   XX=            -47.3031   YY=            -44.0148   ZZ=            -49.2705
   XY=             -4.9216   XZ=              1.5712   YZ=              0.9116

  Exact polarizability: 126.488   2.162  79.255  -1.420  -1.632  61.464
 Approx polarizability: 189.943  10.701 115.563  -6.512  -6.555 100.737

 ******    1 imaginary frequencies (negative Signs) ******

                      1                      2                      3
                      A                      A                      A
 Frequencies --   -479.1690                65.6313                94.3683
 Red. masses --     11.1653                 4.9877                 4.1219
 Frc consts  --      1.5104                 0.0127                 0.0216
 IR Inten    --    107.8001                 3.9594                 1.1078

                      4                      5                      6
                      A                      A                      A
 Frequencies --    156.8542               209.4955               262.7825
 Red. masses --      3.7604                 2.0898                 3.8614
 Frc consts  --      0.0545                 0.0540                 0.1571
 IR Inten    --      4.9225                 3.5321                 7.9810

                      7                      8                      9
                      A                      A                      A
 Frequencies --    330.1102               401.8430               488.7220
 Red. masses --      3.3492                 1.1334                 3.1293
 Frc consts  --      0.2150                 0.1078                 0.4404
 IR Inten    --      3.7493               117.1230                 1.6970

                     10                     11                     12
                      A                      A                      A
 Frequencies --    494.3236               570.6013               681.8319
 Red. masses --      2.2632                 4.3240                 1.4513
 Frc consts  --      0.3258                 0.8295                 0.3975
 IR Inten    --      5.8955                 1.3140                19.4004

                     13                     14                     15
                      A                      A                      A
 Frequencies --    737.1496               772.0551               850.3111
 Red. masses --      1.4604                 1.5714                 3.5934
 Frc consts  --      0.4676                 0.5519                 1.5308
 IR Inten    --      9.5497                13.9738                 2.8069

                     16                     17                     18
                      A                      A                      A
 Frequencies --    920.4002               943.4608               956.6538
 Red. masses --      2.9733                 5.3610                 2.7606
 Frc consts  --      1.4840                 2.8115                 1.4885
 IR Inten    --     78.5391               149.7120                 6.8248

                     19                     20                     21
                      A                      A                      A
 Frequencies --    997.3871              1003.3371              1033.2789
 Red. masses --      1.3215                 2.7248                 2.1270
 Frc consts  --      0.7745                 1.6161                 1.3380
 IR Inten    --      2.2321                 2.4900                 2.3509

                     22                     23                     24
                      A                      A                      A
 Frequencies --   1044.1860              1071.9139              1168.9090
 Red. masses --      1.1723                 1.6787                 1.0821
 Frc consts  --      0.7531                 1.1364                 0.8711
 IR Inten    --      4.6944                 3.3107                 1.2612

                     25                     26                     27
                      A                      A                      A
 Frequencies --   1185.6612              1193.0659              1271.6017
 Red. masses --      1.1590                 1.1270                 1.2095
 Frc consts  --      0.9599                 0.9451                 1.1523
 IR Inten    --      4.5639                 1.1337                 7.7476

                     28                     29                     30
                      A                      A                      A
 Frequencies --   1337.8422              1362.7851              1366.8863
 Red. masses --      1.5983                 1.2971                 1.1112
 Frc consts  --      1.6855                 1.4193                 1.2232
 IR Inten    --      1.7234                 1.8731                29.6558

                     31                     32                     33
                      A                      A                      A
 Frequencies --   1407.9550              1441.6654              1464.5955
 Red. masses --      1.6106                 1.6263                 1.1942
 Frc consts  --      1.8811                 1.9915                 1.5092
 IR Inten    --      1.7209                 0.6516                 4.9419

                     34                     35                     36
                      A                      A                      A
 Frequencies --   1479.9433              1489.9663              1690.4307
 Red. masses --      1.1329                 2.6233                 5.9422
 Frc consts  --      1.4619                 3.4312                10.0044
 IR Inten    --     14.5213                60.4002                 2.9324

                     37                     38                     39
                      A                      A                      A
 Frequencies --   2955.4688              2984.0717              3053.4172
 Red. masses --      1.0729                 1.0715                 1.0881
 Frc consts  --      5.5217                 5.6216                 5.9772
 IR Inten    --     13.3812                40.9041                25.7672

                     40                     41                     42
                      A                      A                      A
 Frequencies --   3064.1140              3151.9431              3167.8138
 Red. masses --      1.0870                 1.0871                 1.0867
 Frc consts  --      6.0130                 6.3633                 6.4251
 IR Inten    --     31.6047                10.2231                 1.8758

                     43                     44                     45
                      A                      A                      A
 Frequencies --   3180.8024              3190.1657              3725.4775
 Red. masses --      1.0924                 1.0953                 1.0686
 Frc consts  --      6.5117                 6.5676                 8.7383
 IR Inten    --     19.1788                 9.8119                45.8056

 - Thermochemistry -
 -------------------
 Temperature   298.150 Kelvin.  Pressure   1.00000 Atm.
 Atom     1 has atomic number  6 and mass  12.00000

 Molecular mass:   113.06025 amu.
 Principal axes and moments of inertia in atomic units:
                           1         2         3
     Eigenvalues --   444.755811344.958331590.30301
           X            0.99991  -0.00338   0.01322
           Y            0.00323   0.99993   0.01143
           Z           -0.01325  -0.01139   0.99985
 This molecule is an asymmetric top.
 Rotational symmetry number  1.
 Warning -- assumption of classical behavior for rotation
           may cause significant error
 Rotational temperatures (Kelvin)      0.19474     0.06440     0.05446
 Rotational constants (GHZ):           4.05782     1.34186     1.13484
    1 imaginary frequencies ignored.
 Zero-point vibrational energy     361399.5 (Joules/Mol)
                                   86.37656 (Kcal/Mol)
 Warning -- explicit consideration of  10 degrees of freedom as
           vibrations may cause significant error
 Vibrational temperatures:     94.43   135.77   225.68   301.42   378.09
          (Kelvin)            474.95   578.16   703.16   711.22   820.97
                              981.00  1060.59  1110.82  1223.41  1324.25
                             1357.43  1376.41  1435.02  1443.58  1486.66
                             1502.35  1542.25  1681.80  1705.90  1716.56
                             1829.55  1924.86  1960.74  1966.64  2025.73
                             2074.23  2107.23  2129.31  2143.73  2432.15
                             4252.26  4293.41  4393.19  4408.58  4534.94
                             4557.78  4576.47  4589.94  5360.13

 Zero-point correction=                           0.137650 (Hartree/Particle)
 Thermal correction to Energy=                    0.145806
 Thermal correction to Enthalpy=                  0.146750
 Thermal correction to Gibbs Free Energy=         0.103948
 Sum of electronic and zero-point Energies=           -384.320265
 Sum of electronic and thermal Energies=              -384.312109
 Sum of electronic and thermal Enthalpies=            -384.311165
 Sum of electronic and thermal Free Energies=         -384.353967

                     E (Thermal)             CV                S
                      KCal/Mol        Cal/Mol-Kelvin    Cal/Mol-Kelvin
 Total                   91.495             29.689             90.084
 Electronic               0.000              0.000              1.377
 Translational            0.889              2.981             40.084
 Rotational               0.889              2.981             28.344
 Vibrational             89.717             23.727             20.279
 Vibration     1          0.597              1.971              4.280
 Vibration     2          0.603              1.953              3.567
 Vibration     3          0.621              1.895              2.587
 Vibration     4          0.642              1.826              2.048
 Vibration     5          0.670              1.741              1.643
 Vibration     6          0.713              1.615              1.260
 Vibration     7          0.767              1.466              0.956
 Vibration     8          0.845              1.275              0.687
 Vibration     9          0.850              1.263              0.672
 Vibration    10          0.927              1.095              0.503

 Optimization completed.
    -- Stationary point found.
 Normal termination of Gaussian 16 at Thu May 12 22:15:44 2022.
