 Gaussian 16, Revision B.01,
 Gaussian 16:  ES64L-G16RevB.01 20-Dec-2017

 ----------------------------------------------------------------------
 # opt=(calcfc,ts,noeigentest) freq ub3lyp cc-pvtz+d int=grid=ultrafine
 ----------------------------------------------------------------------

 --------------------------------------
 QOOH-1-cyclohexenyl-OH-Elim-TS-b3lyp-c
 --------------------------------------
 Symbolic Z-matrix:
 Charge =  0 Multiplicity = 2

 SCF Done:  E(UB3LYP) =  -384.454885399     A.U. after   18 cycles
 SCF Done:  E(UB3LYP) =  -384.453538939     A.U. after   19 cycles
 SCF Done:  E(UB3LYP) =  -384.453872280     A.U. after   17 cycles
 SCF Done:  E(UB3LYP) =  -384.453935974     A.U. after   16 cycles
 SCF Done:  E(UB3LYP) =  -384.453938237     A.U. after   13 cycles
 SCF Done:  E(UB3LYP) =  -384.453938316     A.U. after    9 cycles
 SCF Done:  E(UB3LYP) =  -384.453938342     A.U. after   11 cycles
 Optimization completed.
    -- Stationary point found.
 Normal termination of Gaussian 16 at Mon May 16 22:10:59 2022.

 ---------------------------------------------------------------------
 #N Geom=AllCheck Guess=TCheck SCRF=Check GenChk UB3LYP/CC-pVTZ+d Freq
 ---------------------------------------------------------------------

 Structure from the checkpoint file:  "QOOH-1-cyclohexenyl-OH-Elim-TS--b3lyp-c.chk"
 --------------------------------------
 QOOH-1-cyclohexenyl-OH-Elim-TS-b3lyp-c
 --------------------------------------
 Charge =  0 Multiplicity = 2

                         Standard orientation:
 ---------------------------------------------------------------------
 Center     Atomic      Atomic             Coordinates (Angstroms)
 Number     Number       Type             X           Y           Z
 ---------------------------------------------------------------------
      1          6           0       -2.223899    0.161868   -0.227947
      2          6           0       -1.325821    1.361280   -0.090856
      3          6           0       -0.060527    1.293214    0.310697
      4          6           0        0.581099    0.000536    0.707352
      5          6           0       -0.263813   -1.195963    0.550404
      6          6           0       -1.436726   -1.156505   -0.359892
      7          1           0       -2.082505   -2.018631   -0.187519
      8          1           0       -1.074157   -1.243494   -1.390655
      9          1           0        0.025257   -2.102103    1.059660
     10          1           0        3.433501   -0.412408   -0.342145
     11          1           0        0.558310    2.178680    0.366847
     12          1           0       -1.756256    2.324272   -0.341334
     13          1           0       -2.869798    0.285222   -1.099595
     14          1           0       -2.898025    0.109307    0.633967
     15          8           0        1.386772   -0.605026   -0.275917
     16          1           0        1.102364    0.078849    1.665261
     17          8           0        2.855656    0.356741   -0.436963
 ---------------------------------------------------------------------

 SCF Done:  E(UB3LYP) =  -384.453938342     A.U. after    1 cycles

 The electronic state is 2-A.
 Alpha  occ. eigenvalues --  -19.15793 -19.13035 -10.23425 -10.23080 -10.19497
 Alpha  occ. eigenvalues --  -10.19127 -10.18314 -10.17343  -1.03027  -0.94045
 Alpha  occ. eigenvalues --   -0.83763  -0.76563  -0.73089  -0.63399  -0.61859
 Alpha  occ. eigenvalues --   -0.52829  -0.51197  -0.48120  -0.45997  -0.45290
 Alpha  occ. eigenvalues --   -0.43051  -0.41988  -0.40528  -0.39478  -0.36786
 Alpha  occ. eigenvalues --   -0.35181  -0.33626  -0.29665  -0.26616  -0.26030
 Alpha  occ. eigenvalues --   -0.22535
 Alpha virt. eigenvalues --   -0.04771  -0.00305   0.02902   0.05697   0.06436
 Alpha virt. eigenvalues --    0.07205   0.07767   0.09569   0.09802   0.12333
 Alpha virt. eigenvalues --    0.12852   0.15471   0.18881   0.19515   0.20602

  Beta  occ. eigenvalues --  -19.16017 -19.11552 -10.23487 -10.22180 -10.19543
  Beta  occ. eigenvalues --  -10.19083 -10.18313 -10.17338  -1.02689  -0.91017
  Beta  occ. eigenvalues --   -0.83435  -0.76123  -0.72493  -0.63281  -0.61170
  Beta  occ. eigenvalues --   -0.52539  -0.50833  -0.47481  -0.45740  -0.44974
  Beta  occ. eigenvalues --   -0.42474  -0.41622  -0.40085  -0.38756  -0.36355
  Beta  occ. eigenvalues --   -0.34610  -0.31528  -0.29077  -0.26390  -0.25331
  Beta virt. eigenvalues --   -0.10469  -0.01207  -0.00175   0.03051   0.05925
  Beta virt. eigenvalues --    0.06484   0.07475   0.07919   0.09711   0.10038
  Beta virt. eigenvalues --    0.12467   0.12914   0.15657   0.19154   0.19702

 Mulliken charges and spin densities:
               1          2
     1  C   -0.149676   0.015236
     2  C   -0.127197  -0.000223
     3  C   -0.136585   0.001563
     4  C    0.167351  -0.019726
     5  C   -0.081990   0.612773
     6  C   -0.154663  -0.031576
     7  H    0.098805   0.003977
     8  H    0.121580   0.037917
     9  H    0.139289  -0.017834
    10  H    0.218396  -0.006507
    11  H    0.124265  -0.001071
    12  H    0.117727  -0.000218
    13  H    0.096046   0.001830
    14  H    0.098460   0.003242
    15  O   -0.275530  -0.150656
    16  H    0.074878   0.009739
    17  O   -0.331155   0.541536
 Sum of Mulliken charges =  -0.00000   1.00000

 Dipole moment (field-independent basis, Debye):
    X=             -2.6462    Y=             -1.4679    Z=              1.3258  Tot=              3.3038
 Quadrupole moment (field-independent basis, Debye-Ang):
   XX=            -46.1815   YY=            -45.2944   ZZ=            -48.7446
   XY=             -2.4604   XZ=              3.4101   YZ=             -0.6838

  Exact polarizability: 122.554  10.292  76.719  -0.399  -3.063  59.094
 Approx polarizability: 189.008  26.028 112.365  -8.338  -8.140  94.221

 ******    1 imaginary frequencies (negative Signs) ******

                      1                      2                      3
                      A                      A                      A
 Frequencies --   -692.9884                77.6399               123.9571
 Red. masses --     13.4833                 5.1895                 3.1976
 Frc consts  --      3.8150                 0.0184                 0.0289
 IR Inten    --    155.3080                 1.6378                 0.7697

                      4                      5                      6
                      A                      A                      A
 Frequencies --    148.2492               171.6387               263.1074
 Red. masses --      1.7747                 1.3570                 4.7781
 Frc consts  --      0.0230                 0.0236                 0.1949
 IR Inten    --     45.6660                52.4730                 9.1922

                      7                      8                      9
                      A                      A                      A
 Frequencies --    286.3824               391.8943               491.0862
 Red. masses --      2.8560                 3.7805                 2.4015
 Frc consts  --      0.1380                 0.3421                 0.3412
 IR Inten    --      2.8832                 6.1848                 6.8899

                     10                     11                     12
                      A                      A                      A
 Frequencies --    514.7627               548.4615               682.2424
 Red. masses --      2.7362                 5.1102                 1.3218
 Frc consts  --      0.4272                 0.9057                 0.3625
 IR Inten    --      7.3241                 1.2939                 3.0613

                     13                     14                     15
                      A                      A                      A
 Frequencies --    740.2509               758.9012               836.1047
 Red. masses --      1.8006                 1.5700                 3.8371
 Frc consts  --      0.5813                 0.5328                 1.5804
 IR Inten    --     16.6941                25.7333                 6.1700

                     16                     17                     18
                      A                      A                      A
 Frequencies --    890.1370               927.4350               939.2235
 Red. masses --      2.3918                 1.2765                 2.2757
 Frc consts  --      1.1166                 0.6469                 1.1828
 IR Inten    --      0.6177                70.5368                19.4881

                     19                     20                     21
                      A                      A                      A
 Frequencies --    982.8791              1003.2165              1012.1423
 Red. masses --      2.7596                 1.4861                 3.4721
 Frc consts  --      1.5707                 0.8812                 2.0957
 IR Inten    --      1.8118                 3.6138                35.2686

                     22                     23                     24
                      A                      A                      A
 Frequencies --   1024.6623              1062.7242              1142.6279
 Red. masses --      1.7312                 1.8920                 1.2085
 Frc consts  --      1.0710                 1.2589                 0.9297
 IR Inten    --      1.5226                 5.3647                 3.3248

                     25                     26                     27
                      A                      A                      A
 Frequencies --   1181.0295              1187.5187              1268.6737
 Red. masses --      1.2043                 1.1159                 1.1878
 Frc consts  --      0.9897                 0.9272                 1.1264
 IR Inten    --      5.3017                 1.8303                 5.2475

                     28                     29                     30
                      A                      A                      A
 Frequencies --   1280.3931              1322.3762              1358.8797
 Red. masses --      1.2243                 1.6158                 1.2686
 Frc consts  --      1.1826                 1.6648                 1.3802
 IR Inten    --      0.7541                 1.7373                 1.6207

                     31                     32                     33
                      A                      A                      A
 Frequencies --   1400.2520              1413.1941              1427.0980
 Red. masses --      1.7731                 2.1465                 1.6165
 Frc consts  --      2.0483                 2.5257                 1.9397
 IR Inten    --      1.4541                14.4478                 6.0785

                     34                     35                     36
                      A                      A                      A
 Frequencies --   1461.0656              1485.9193              1711.5802
 Red. masses --      1.1026                 1.0891                 6.4396
 Frc consts  --      1.3868                 1.4168                11.1149
 IR Inten    --     11.1581                 4.8157                 1.6508

                     37                     38                     39
                      A                      A                      A
 Frequencies --   2994.3368              3004.9032              3021.6573
 Red. masses --      1.0721                 1.0672                 1.0838
 Frc consts  --      5.6634                 5.6776                 5.8303
 IR Inten    --      7.1867                28.1730                37.6136

                     40                     41                     42
                      A                      A                      A
 Frequencies --   3051.4205              3065.4767              3144.4631
 Red. masses --      1.0903                 1.0911                 1.0872
 Frc consts  --      5.9814                 6.0409                 6.3336
 IR Inten    --     25.1026                26.3414                15.5222

                     43                     44                     45
                      A                      A                      A
 Frequencies --   3183.3964              3212.2372              3783.4494
 Red. masses --      1.0945                 1.0903                 1.0679
 Frc consts  --      6.5348                 6.6282                 9.0062
 IR Inten    --      8.6702                 7.3820                49.7065

 - Thermochemistry -
 -------------------
 Temperature   298.150 Kelvin.  Pressure   1.00000 Atm.
 Atom     1 has atomic number  6 and mass  12.00000

 Molecular mass:   113.06025 amu.
 Principal axes and moments of inertia in atomic units:
                           1         2         3
     Eigenvalues --   462.499981196.843061479.53661
           X            0.99987   0.00097   0.01627
           Y           -0.00095   1.00000  -0.00107
           Z           -0.01627   0.00105   0.99987
 This molecule is an asymmetric top.
 Rotational symmetry number  1.
 Warning -- assumption of classical behavior for rotation
           may cause significant error
 Rotational temperatures (Kelvin)      0.18727     0.07237     0.05854
 Rotational constants (GHZ):           3.90214     1.50792     1.21980
    1 imaginary frequencies ignored.
 Zero-point vibrational energy     358754.4 (Joules/Mol)
                                   85.74435 (Kcal/Mol)
 Warning -- explicit consideration of  10 degrees of freedom as
           vibrations may cause significant error
 Vibrational temperatures:    111.71   178.35   213.30   246.95   378.55
          (Kelvin)            412.04   563.85   706.56   740.63   789.11
                              981.59  1065.06  1091.89  1202.97  1280.71
                             1334.37  1351.33  1414.14  1443.40  1456.25
                             1474.26  1529.02  1643.99  1699.24  1708.57
                             1825.34  1842.20  1902.60  1955.12  2014.65
                             2033.27  2053.28  2102.15  2137.91  2462.58
                             4308.18  4323.39  4347.49  4390.31  4410.54
                             4524.18  4580.20  4621.69  5443.54

 Zero-point correction=                           0.136642 (Hartree/Particle)
 Thermal correction to Energy=                    0.144890
 Thermal correction to Enthalpy=                  0.145835
 Thermal correction to Gibbs Free Energy=         0.103117
 Sum of electronic and zero-point Energies=           -384.317296
 Sum of electronic and thermal Energies=              -384.309048
 Sum of electronic and thermal Enthalpies=            -384.308104
 Sum of electronic and thermal Free Energies=         -384.350822

                     E (Thermal)             CV                S
                      KCal/Mol        Cal/Mol-Kelvin    Cal/Mol-Kelvin
 Total                   90.920             30.111             89.907
 Electronic               0.000              0.000              1.377
 Translational            0.889              2.981             40.084
 Rotational               0.889              2.981             28.195
 Vibrational             89.143             24.150             20.250
 Vibration     1          0.599              1.964              3.950
 Vibration     2          0.610              1.929              3.038
 Vibration     3          0.618              1.905              2.695
 Vibration     4          0.626              1.877              2.417
 Vibration     5          0.670              1.740              1.641
 Vibration     6          0.684              1.699              1.495
 Vibration     7          0.759              1.488              0.993
 Vibration     8          0.847              1.270              0.681
 Vibration     9          0.870              1.217              0.622
 Vibration    10          0.904              1.143              0.547

                           ! Non-Optimized Parameters !
 Normal termination of Gaussian 16 at Mon May 16 22:16:55 2022.
