 Gaussian 16, Revision B.01,
 Gaussian 16:  ES64L-G16RevB.01 20-Dec-2017

 ----------------------------------------------------------------------
 # opt=(calcfc,qst2,modredundant) freq ub3lyp cc-pvtz+d int=grid=ultraf
 ine
 ----------------------------------------------------------------------

 ----------------------------------------------
 cyclohexenylO2-Concerted-OOH-Elim-QST2-b3lyp-c
 ----------------------------------------------
 Symbolic Z-matrix:
 Charge =  0 Multiplicity = 2

 -------------------
 Title Card Required
 -------------------
 Symbolic Z-matrix:
 Charge =  0 Multiplicity = 2

 SCF Done:  E(UB3LYP) =  -384.388541600     A.U. after   27 cycles
 SCF Done:  E(UB3LYP) =  -384.408784000     A.U. after   21 cycles
 SCF Done:  E(UB3LYP) =  -384.426310831     A.U. after   20 cycles
 SCF Done:  E(UB3LYP) =  -384.441603465     A.U. after   17 cycles
 SCF Done:  E(UB3LYP) =  -384.453992620     A.U. after   17 cycles
 SCF Done:  E(UB3LYP) =  -384.459120285     A.U. after   16 cycles
 SCF Done:  E(UB3LYP) =  -384.463045622     A.U. after   16 cycles
 SCF Done:  E(UB3LYP) =  -384.462747382     A.U. after   16 cycles
 SCF Done:  E(UB3LYP) =  -384.461500138     A.U. after   16 cycles
 SCF Done:  E(UB3LYP) =  -384.458742337     A.U. after   19 cycles
 SCF Done:  E(UB3LYP) =  -384.458504330     A.U. after   16 cycles
 SCF Done:  E(UB3LYP) =  -384.458668288     A.U. after   18 cycles
 SCF Done:  E(UB3LYP) =  -384.458701892     A.U. after   18 cycles
 SCF Done:  E(UB3LYP) =  -384.458746173     A.U. after   17 cycles
 SCF Done:  E(UB3LYP) =  -384.458751231     A.U. after   14 cycles
 SCF Done:  E(UB3LYP) =  -384.458758127     A.U. after   13 cycles
 SCF Done:  E(UB3LYP) =  -384.458744522     A.U. after   14 cycles
 SCF Done:  E(UB3LYP) =  -384.458760276     A.U. after   14 cycles
 SCF Done:  E(UB3LYP) =  -384.458760433     A.U. after   12 cycles
 Optimization completed.
    -- Stationary point found.
 Normal termination of Gaussian 16 at Thu May 12 20:36:51 2022.

 ---------------------------------------------------------------------
 #N Geom=AllCheck Guess=TCheck SCRF=Check GenChk UB3LYP/CC-pVTZ+d Freq
 ---------------------------------------------------------------------

 Structure from the checkpoint file:  "cyclohexenylO2-Concerted-OOH-Elim-QST2-b3lyp-c.chk"
 ----------------------------------------------
 cyclohexenylO2-Concerted-OOH-Elim-QST2-b3lyp-c
 ----------------------------------------------
 Charge =  0 Multiplicity = 2

                         Standard orientation:
 ---------------------------------------------------------------------
 Center     Atomic      Atomic             Coordinates (Angstroms)
 Number     Number       Type             X           Y           Z
 ---------------------------------------------------------------------
      1          6           0       -2.125361   -0.435280   -0.277739
      2          6           0       -1.694591    0.998372   -0.415041
      3          6           0       -0.557272    1.443838    0.139189
      4          6           0        0.262574    0.549435    0.923548
      5          6           0        0.154154   -0.834316    0.795816
      6          6           0       -0.922849   -1.376570   -0.153408
      7          1           0       -1.247129   -2.362984    0.177272
      8          1           0       -0.488959   -1.512423   -1.148261
      9          1           0        0.394519   -1.429736    1.673367
     10          1           0        1.286952   -0.977118    0.142258
     11          1           0       -0.275978    2.486035    0.070720
     12          1           0       -2.351750    1.687781   -0.931091
     13          1           0       -2.738158   -0.728497   -1.131968
     14          1           0       -2.779015   -0.519168    0.600559
     15          8           0        2.239223    0.649215   -0.371979
     16          1           0        0.877480    0.972155    1.705274
     17          8           0        2.338541   -0.610330   -0.532060
 ---------------------------------------------------------------------

 SCF Done:  E(UB3LYP) =  -384.458760433     A.U. after    1 cycles

 The electronic state is 2-A.
 Alpha  occ. eigenvalues --  -19.21378 -19.20150 -10.21226 -10.19511 -10.18825
 Alpha  occ. eigenvalues --  -10.18565 -10.18533 -10.17895  -1.18938  -0.85899
 Alpha  occ. eigenvalues --   -0.79795  -0.76524  -0.75794  -0.63408  -0.61536
 Alpha  occ. eigenvalues --   -0.53151  -0.51634  -0.50648  -0.48329  -0.47025
 Alpha  occ. eigenvalues --   -0.45357  -0.43941  -0.42801  -0.40976  -0.38792
 Alpha  occ. eigenvalues --   -0.34941  -0.33793  -0.31672  -0.29346  -0.26367
 Alpha  occ. eigenvalues --   -0.23120
 Alpha virt. eigenvalues --   -0.07182   0.02881   0.03624   0.05732   0.06335
 Alpha virt. eigenvalues --    0.07776   0.08577   0.09218   0.11019   0.12771
 Alpha virt. eigenvalues --    0.16177   0.17190   0.18966   0.20061   0.20991

  Beta  occ. eigenvalues --  -19.19945 -19.18327 -10.21329 -10.19577 -10.18820
  Beta  occ. eigenvalues --  -10.18535 -10.18529 -10.17868  -1.15779  -0.85961
  Beta  occ. eigenvalues --   -0.76919  -0.76276  -0.74463  -0.63429  -0.61531
  Beta  occ. eigenvalues --   -0.52780  -0.51100  -0.50499  -0.45753  -0.44717
  Beta  occ. eigenvalues --   -0.43991  -0.42875  -0.41015  -0.39258  -0.38625
  Beta  occ. eigenvalues --   -0.34945  -0.33801  -0.31536  -0.28392  -0.22047
  Beta virt. eigenvalues --   -0.08861  -0.06975   0.02880   0.03538   0.05733
  Beta virt. eigenvalues --    0.06367   0.07810   0.08598   0.09240   0.11109
  Beta virt. eigenvalues --    0.12781   0.16874   0.17416   0.19451   0.20161

 Mulliken charges and spin densities:
               1          2
     1  C   -0.143703   0.002437
     2  C   -0.105875  -0.044070
     3  C   -0.113050   0.023001
     4  C   -0.053940  -0.070696
     5  C   -0.207808   0.016829
     6  C   -0.169835  -0.000760
     7  H    0.096270  -0.000096
     8  H    0.092350   0.000622
     9  H    0.112391  -0.001754
    10  H    0.195014  -0.018447
    11  H    0.116082  -0.000450
    12  H    0.122988   0.001659
    13  H    0.097877  -0.000463
    14  H    0.094609  -0.002056
    15  O   -0.161640   0.622813
    16  H    0.140252   0.003031
    17  O   -0.111981   0.468402
 Sum of Mulliken charges =  -0.00000   1.00000

 Dipole moment (field-independent basis, Debye):
    X=             -3.0034    Y=             -0.3137    Z=              1.0986  Tot=              3.2134
 Quadrupole moment (field-independent basis, Debye-Ang):
   XX=            -52.9048   YY=            -45.8531   ZZ=            -47.6524
   XY=             -0.2436   XZ=              4.1701   YZ=             -0.2937

  Exact polarizability: 110.337  -3.087  82.442   1.084   0.068  63.797
 Approx polarizability: 194.610 -13.354 136.020  -8.966   5.355 104.565

 ******    1 imaginary frequencies (negative Signs) ******

                      1                      2                      3
                      A                      A                      A
 Frequencies --  -1078.2646                97.5341               126.8272
 Red. masses --      1.2805                 4.6811                 4.2024
 Frc consts  --      0.8772                 0.0262                 0.0398
 IR Inten    --    166.2187                 2.4407                 0.6171

                      4                      5                      6
                      A                      A                      A
 Frequencies --    177.6611               210.5703               286.0263
 Red. masses --      4.9020                 2.5421                 3.4612
 Frc consts  --      0.0912                 0.0664                 0.1668
 IR Inten    --      7.9614                 1.6528                 9.8140

                      7                      8                      9
                      A                      A                      A
 Frequencies --    399.9607               497.8871               528.7688
 Red. masses --      2.7728                 3.3388                 4.6380
 Frc consts  --      0.2613                 0.4876                 0.7640
 IR Inten    --      9.4967                15.6505                 0.9170

                     10                     11                     12
                      A                      A                      A
 Frequencies --    586.5982               656.0732               723.0531
 Red. masses --      2.4652                 5.9233                 1.3731
 Frc consts  --      0.4998                 1.5022                 0.4229
 IR Inten    --      1.6740                 0.3840                31.1676

                     13                     14                     15
                      A                      A                      A
 Frequencies --    762.6606               845.8168               850.8196
 Red. masses --      1.6301                 3.3443                 1.2928
 Frc consts  --      0.5586                 1.4097                 0.5514
 IR Inten    --     14.3611                 5.6479                 5.1161

                     16                     17                     18
                      A                      A                      A
 Frequencies --    924.3539               963.8049               993.4353
 Red. masses --      2.2166                 1.9733                 2.1781
 Frc consts  --      1.1159                 1.0800                 1.2665
 IR Inten    --      3.4344                 9.7208                 0.5840

                     19                     20                     21
                      A                      A                      A
 Frequencies --    997.1791              1007.4732              1063.5988
 Red. masses --      1.3711                 1.7612                 2.0022
 Frc consts  --      0.8033                 1.0532                 1.3345
 IR Inten    --      0.9589                 4.2360                 4.9450

                     22                     23                     24
                      A                      A                      A
 Frequencies --   1072.7155              1175.6094              1187.2790
 Red. masses --      1.7596                 1.0940                 1.1150
 Frc consts  --      1.1930                 0.8909                 0.9261
 IR Inten    --      2.1509                 4.6195                 2.5945

                     25                     26                     27
                      A                      A                      A
 Frequencies --   1221.4283              1261.9647              1294.7437
 Red. masses --      1.1693                 1.2072                 1.2726
 Frc consts  --      1.0278                 1.1327                 1.2570
 IR Inten    --     15.3317                 3.4682                42.9353

                     28                     29                     30
                      A                      A                      A
 Frequencies --   1318.9657              1357.7863              1365.5877
 Red. masses --      4.5534                 1.2846                 1.3906
 Frc consts  --      4.6672                 1.3953                 1.5279
 IR Inten    --    280.2165                 1.3271                 0.6888

                     31                     32                     33
                      A                      A                      A
 Frequencies --   1399.3008              1438.3204              1472.6538
 Red. masses --      1.5162                 1.6305                 1.0895
 Frc consts  --      1.7492                 1.9874                 1.3922
 IR Inten    --      0.5135                 5.9264                 6.1733

                     34                     35                     36
                      A                      A                      A
 Frequencies --   1492.5637              1534.1243              1562.9257
 Red. masses --      1.1136                 1.4101                 2.1898
 Frc consts  --      1.4616                 1.9553                 3.1516
 IR Inten    --      4.6378                36.4847                16.5873

                     37                     38                     39
                      A                      A                      A
 Frequencies --   1657.0727              2976.5881              3015.1670
 Red. masses --      5.1933                 1.0734                 1.0689
 Frc consts  --      8.4019                 5.6031                 5.7253
 IR Inten    --      9.5157                24.2059                27.2648

                     40                     41                     42
                      A                      A                      A
 Frequencies --   3057.2926              3074.1742              3105.5866
 Red. masses --      1.0872                 1.0933                 1.0867
 Frc consts  --      5.9875                 6.0874                 6.1753
 IR Inten    --     27.2313                23.2675                11.1693

                     43                     44                     45
                      A                      A                      A
 Frequencies --   3156.7515              3179.6747              3193.4490
 Red. masses --      1.0864                 1.0931                 1.0936
 Frc consts  --      6.3783                 6.5115                 6.5710
 IR Inten    --      3.9156                16.0745                 9.0190

 - Thermochemistry -
 -------------------
 Temperature   298.150 Kelvin.  Pressure   1.00000 Atm.
 Atom     1 has atomic number  6 and mass  12.00000

 Molecular mass:   113.06025 amu.
 Principal axes and moments of inertia in atomic units:
                           1         2         3
     Eigenvalues --   521.405941193.043501445.96857
           X            0.99968   0.00891   0.02372
           Y           -0.00878   0.99994  -0.00593
           Z           -0.02377   0.00572   0.99970
 This molecule is an asymmetric top.
 Rotational symmetry number  1.
 Warning -- assumption of classical behavior for rotation
           may cause significant error
 Rotational temperatures (Kelvin)      0.16612     0.07260     0.05990
 Rotational constants (GHZ):           3.46130     1.51272     1.24812
    1 imaginary frequencies ignored.
 Zero-point vibrational energy     354524.3 (Joules/Mol)
                                   84.73333 (Kcal/Mol)
 Warning -- explicit consideration of   9 degrees of freedom as
           vibrations may cause significant error
 Vibrational temperatures:    140.33   182.48   255.61   302.96   411.53
          (Kelvin)            575.45   716.35   760.78   843.98   943.94
                             1040.31  1097.30  1216.94  1224.14  1329.94
                             1386.70  1429.33  1434.72  1449.53  1530.28
                             1543.40  1691.44  1708.23  1757.36  1815.69
                             1862.85  1897.70  1953.55  1964.78  2013.28
                             2069.42  2118.82  2147.47  2207.26  2248.70
                             2384.16  4282.65  4338.15  4398.76  4423.05
                             4468.25  4541.86  4574.84  4594.66

 Zero-point correction=                           0.135031 (Hartree/Particle)
 Thermal correction to Energy=                    0.142627
 Thermal correction to Enthalpy=                  0.143571
 Thermal correction to Gibbs Free Energy=         0.102212
 Sum of electronic and zero-point Energies=           -384.323729
 Sum of electronic and thermal Energies=              -384.316134
 Sum of electronic and thermal Enthalpies=            -384.315190
 Sum of electronic and thermal Free Energies=         -384.356548

                     E (Thermal)             CV                S
                      KCal/Mol        Cal/Mol-Kelvin    Cal/Mol-Kelvin
 Total                   89.500             28.259             87.047
 Electronic               0.000              0.000              1.377
 Translational            0.889              2.981             40.084
 Rotational               0.889              2.981             28.288
 Vibrational             87.722             22.297             17.297
 Vibration     1          0.603              1.951              3.503
 Vibration     2          0.611              1.926              2.994
 Vibration     3          0.628              1.870              2.353
 Vibration     4          0.643              1.825              2.039
 Vibration     5          0.684              1.700              1.497
 Vibration     6          0.766              1.470              0.963
 Vibration     7          0.853              1.255              0.663
 Vibration     8          0.884              1.186              0.590
 Vibration     9          0.944              1.060              0.473

                           ! Non-Optimized Parameters !
 Normal termination of Gaussian 16 at Thu May 12 20:43:15 2022.
