 Gaussian 16, Revision C.01,
 Gaussian 16:  ES64L-G16RevC.01  3-Jul-2019

 ----------------------------------------------------------------------
 #p B3LYP/cc-PVTZ scf(verytight, maxcycles=1000) opt(calcfc, maxcyc=100
 0) freq(hpmodes) int(grid=ultrafine)
 ----------------------------------------------------------------------

 ------
 Mol_03
 ------
 Symbolic Z-matrix:
 Charge =  0 Multiplicity = 2

 SCF Done:  E(UB3LYP) =  -308.234793398     A.U. after   14 cycles
 SCF Done:  E(UB3LYP) =  -308.254764528     A.U. after   13 cycles
 SCF Done:  E(UB3LYP) =  -308.259713978     A.U. after   13 cycles
 SCF Done:  E(UB3LYP) =  -308.261065440     A.U. after   13 cycles
 SCF Done:  E(UB3LYP) =  -308.261425791     A.U. after   13 cycles
 SCF Done:  E(UB3LYP) =  -308.261583919     A.U. after   12 cycles
 SCF Done:  E(UB3LYP) =  -308.261636433     A.U. after   11 cycles
 SCF Done:  E(UB3LYP) =  -308.261652928     A.U. after   11 cycles
 SCF Done:  E(UB3LYP) =  -308.261654663     A.U. after    9 cycles
 SCF Done:  E(UB3LYP) =  -308.261657825     A.U. after   10 cycles
 SCF Done:  E(UB3LYP) =  -308.261658261     A.U. after    8 cycles
 SCF Done:  E(UB3LYP) =  -308.261658272     A.U. after    7 cycles
 Optimization completed.
    -- Stationary point found.
 Normal termination of Gaussian 16 at Thu Apr  7 20:02:44 2022.

 -------------------------------------------------------------------
 #P Geom=AllCheck Guess=TCheck SCRF=Check GenChk UB3LYP/CC-pVTZ Freq
 -------------------------------------------------------------------

 Structure from the checkpoint file:  "Mol_03.chk"
 ------
 Mol_03
 ------
 Charge =  0 Multiplicity = 2

                         Standard orientation:
 ---------------------------------------------------------------------
 Center     Atomic      Atomic             Coordinates (Angstroms)
 Number     Number       Type             X           Y           Z
 ---------------------------------------------------------------------
      1          6           0        1.747753   -1.148068   -0.170438
      2          6           0        0.828672   -0.004333    0.084194
      3          6           0       -0.384257   -0.177993    0.931730
      4          6           0        1.258994    1.375988   -0.282916
      5          1           0        1.242046   -2.107979   -0.061594
      6          1           0        2.603225   -1.152270    0.522119
      7          1           0        2.178246   -1.100358   -1.175375
      8          1           0        2.047683    1.744907    0.390221
      9          1           0        0.431620    2.083978   -0.230015
     10          1           0        1.680466    1.414577   -1.291300
     11          8           0       -1.580275    0.388399    0.371828
     12          8           0       -1.970741   -0.435894   -0.756588
     13          1           0       -0.307879    0.380120    1.875954
     14          1           0       -0.563479   -1.228642    1.169149
     15          1           0       -1.610767    0.072063   -1.496499
 ---------------------------------------------------------------------

 SCF Done:  E(UB3LYP) =  -308.261658272     A.U. after    1 cycles

 The electronic state is 2-A.
 Alpha  occ. eigenvalues --  -19.18301 -19.17596 -10.22455 -10.19279 -10.17457
 Alpha  occ. eigenvalues --  -10.17326  -1.11429  -0.91247  -0.80839  -0.70482
 Alpha  occ. eigenvalues --   -0.68284  -0.55923  -0.53001  -0.47813  -0.47030
 Alpha  occ. eigenvalues --   -0.44733  -0.43252  -0.41961  -0.39855  -0.38289
 Alpha  occ. eigenvalues --   -0.36598  -0.35541  -0.29715  -0.27827  -0.19438
 Alpha virt. eigenvalues --    0.01138   0.02830   0.06012   0.07475   0.07852
 Alpha virt. eigenvalues --    0.09325   0.09802   0.10617   0.12761   0.14126
 Alpha virt. eigenvalues --    0.14895   0.16174   0.21292   0.21922   0.24761

  Beta  occ. eigenvalues --  -19.18171 -19.17586 -10.22541 -10.17927 -10.17542
  Beta  occ. eigenvalues --  -10.17401  -1.11255  -0.91008  -0.79131  -0.70249
  Beta  occ. eigenvalues --   -0.67975  -0.54503  -0.52704  -0.46757  -0.46531
  Beta  occ. eigenvalues --   -0.44433  -0.42142  -0.41699  -0.39205  -0.38117
  Beta  occ. eigenvalues --   -0.36212  -0.35101  -0.29630  -0.27531
  Beta virt. eigenvalues --   -0.06108   0.01266   0.03009   0.06218   0.07535
  Beta virt. eigenvalues --    0.07981   0.09490   0.10119   0.10776   0.13114
  Beta virt. eigenvalues --    0.14434   0.15606   0.16730   0.21488   0.22172

 Mulliken charges and spin densities:
               1          2
     1  C   -0.288306  -0.047972
     2  C   -0.008883   0.880777
     3  C    0.057114  -0.029995
     4  C   -0.304563  -0.042599
     5  H    0.101394   0.004203
     6  H    0.092855   0.058083
     7  H    0.095388   0.024747
     8  H    0.096336   0.057162
     9  H    0.107987   0.003300
    10  H    0.097406   0.018627
    11  O   -0.194162   0.027807
    12  O   -0.240396   0.003757
    13  H    0.081341   0.040716
    14  H    0.079186  -0.000387
    15  H    0.227304   0.001775
 Sum of Mulliken charges =  -0.00000   1.00000

 Dipole moment (field-independent basis, Debye):
    X=              2.3597    Y=              0.2485    Z=             -0.4790  Tot=              2.4207
 Quadrupole moment (field-independent basis, Debye-Ang):
   XX=            -43.1698   YY=            -38.1293   ZZ=            -34.1672
   XY=             -0.6173   XZ=              1.3034   YZ=             -1.2469

  Exact polarizability:      63.527       0.396      58.908      -0.045       0.168      56.569
 Approx polarizability:      81.678       1.209      79.582       1.611       3.124      83.068

                      1                      2                      3
                      A                      A                      A
 Frequencies --     33.4358                70.5341               104.9496
 Red. masses --      2.9002                 1.3577                 1.2051
 Frc consts  --      0.0019                 0.0040                 0.0078
 IR Inten    --      0.2431                 1.5616                 0.9196

                      4                      5                      6
                      A                      A                      A
 Frequencies --    129.9819               204.1928               235.8002
 Red. masses --      1.8464                 1.1622                 2.8506
 Frc consts  --      0.0184                 0.0285                 0.0934
 IR Inten    --      1.3995                96.1460                29.7977

                      7                      8                      9
                      A                      A                      A
 Frequencies --    310.0464               367.7000               400.7589
 Red. masses --      3.0644                 2.2237                 2.1752
 Frc consts  --      0.1736                 0.1771                 0.2058
 IR Inten    --      8.8126                 0.3695                10.8075

                     10                     11                     12
                      A                      A                      A
 Frequencies --    551.2879               774.8480               858.6426
 Red. masses --      4.7211                 3.8054                 4.1124
 Frc consts  --      0.8454                 1.3461                 1.7864
 IR Inten    --      2.3561                 6.1220                26.1282

                     13                     14                     15
                      A                      A                      A
 Frequencies --    939.9628               942.3565               972.3378
 Red. masses --      3.2320                 1.2465                 1.3980
 Frc consts  --      1.6825                 0.6522                 0.7787
 IR Inten    --      1.2690                 1.1827                 4.0036

                     16                     17                     18
                      A                      A                      A
 Frequencies --   1000.4202              1005.5271              1051.9266
 Red. masses --      2.0725                 2.0716                 1.6978
 Frc consts  --      1.2221                 1.2341                 1.1069
 IR Inten    --     25.3994                 1.9543                 4.6958

                     19                     20                     21
                      A                      A                      A
 Frequencies --   1239.0216              1293.7248              1307.7913
 Red. masses --      1.7198                 1.9166                 2.0706
 Frc consts  --      1.5556                 1.8900                 2.0866
 IR Inten    --      0.3874                 7.2204                 7.1967

                     22                     23                     24
                      A                      A                      A
 Frequencies --   1360.1532              1376.1121              1400.4718
 Red. masses --      1.1117                 1.3271                 1.3218
 Frc consts  --      1.2118                 1.4806                 1.5274
 IR Inten    --     53.6974                 4.8560                 6.6269

                     25                     26                     27
                      A                      A                      A
 Frequencies --   1416.3914              1460.1408              1469.8108
 Red. masses --      1.1917                 1.1040                 1.0668
 Frc consts  --      1.4086                 1.3867                 1.3579
 IR Inten    --      6.9822                 3.7652                 3.0402

                     28                     29                     30
                      A                      A                      A
 Frequencies --   1475.6848              1485.6146              1496.4919
 Red. masses --      1.0515                 1.0534                 1.0853
 Frc consts  --      1.3491                 1.3698                 1.4320
 IR Inten    --      4.9737                 7.5881                 5.1755

                     31                     32                     33
                      A                      A                      A
 Frequencies --   2940.1077              2944.7109              2963.5689
 Red. masses --      1.0603                 1.0617                 1.0668
 Frc consts  --      5.4003                 5.4241                 5.5205
 IR Inten    --     23.5676                50.0092                38.7259

                     34                     35                     36
                      A                      A                      A
 Frequencies --   3017.8420              3027.1571              3053.2430
 Red. masses --      1.0729                 1.0727                 1.0931
 Frc consts  --      5.7572                 5.7916                 6.0041
 IR Inten    --     20.8102                27.8038                25.8763

                     37                     38                     39
                      A                      A                      A
 Frequencies --   3084.9746              3089.4938              3746.8587
 Red. masses --      1.0960                 1.0968                 1.0685
 Frc consts  --      6.1456                 6.1683                 8.8377
 IR Inten    --     26.5190                15.5650                20.1237

 - Thermochemistry -
 -------------------
 Temperature   298.150 Kelvin.  Pressure   1.00000 Atm.
 Atom     1 has atomic number  6 and mass  12.00000

 Molecular mass:    89.06025 amu.
 Principal axes and moments of inertia in atomic units:
                           1         2         3
     Eigenvalues --   344.38552 801.30599 904.20955
           X            0.99993  -0.00608  -0.00983
           Y            0.00552   0.99841  -0.05606
           Z            0.01016   0.05600   0.99838
 This molecule is an asymmetric top.
 Rotational symmetry number  1.
 Rotational temperatures (Kelvin)      0.25150     0.10809     0.09579
 Rotational constants (GHZ):           5.24047     2.25225     1.99593
 Zero-point vibrational energy     326604.9 (Joules/Mol)
                                   78.06044 (Kcal/Mol)
 Warning -- explicit consideration of  10 degrees of freedom as
           vibrations may cause significant error
 Vibrational temperatures:     48.11   101.48   151.00   187.01   293.79
          (Kelvin)            339.26   446.09   529.04   576.60   793.18
                             1114.83  1235.40  1352.40  1355.84  1398.98
                             1439.38  1446.73  1513.49  1782.68  1861.38
                             1881.62  1956.96  1979.92  2014.97  2037.87
                             2100.82  2114.73  2123.18  2137.47  2153.12
                             4230.16  4236.78  4263.91  4342.00  4355.40
                             4392.94  4438.59  4445.09  5390.89

 Zero-point correction=                           0.124397 (Hartree/Particle)
 Thermal correction to Energy=                    0.133085
 Thermal correction to Enthalpy=                  0.134029
 Thermal correction to Gibbs Free Energy=         0.089874
 Sum of electronic and zero-point Energies=           -308.137261
 Sum of electronic and thermal Energies=              -308.128573
 Sum of electronic and thermal Enthalpies=            -308.127629
 Sum of electronic and thermal Free Energies=         -308.171784

                     E (Thermal)             CV                S
                      KCal/Mol        Cal/Mol-Kelvin    Cal/Mol-Kelvin
 Total                   83.512             28.149             92.932
 Electronic               0.000              0.000              1.377
 Translational            0.889              2.981             39.373
 Rotational               0.889              2.981             27.014
 Vibrational             81.735             22.188             25.167
 Vibration     1          0.594              1.983              5.614
 Vibration     2          0.598              1.968              4.138
 Vibration     3          0.605              1.945              3.360
 Vibration     4          0.612              1.923              2.946
 Vibration     5          0.640              1.834              2.095
 Vibration     6          0.655              1.786              1.834
 Vibration     7          0.699              1.655              1.362
 Vibration     8          0.740              1.539              1.089
 Vibration     9          0.767              1.468              0.960
 Vibration    10          0.907              1.137              0.542

                           ! Non-Optimized Parameters !
 Normal termination of Gaussian 16 at Thu Apr  7 20:10:28 2022.
