 Gaussian 16, Revision C.01,
 Gaussian 16:  ES64L-G16RevC.01  3-Jul-2019

 ----------------------------------------------------------------------
 #p B3LYP/cc-PVTZ scf(verytight, maxcycles=1000) opt(calcfc, maxcyc=100
 0) freq(hpmodes) int(grid=ultrafine)
 ----------------------------------------------------------------------

 ------
 Mol_01
 ------
 Symbolic Z-matrix:
 Charge =  0 Multiplicity = 2

 SCF Done:  E(UB3LYP) =  -157.835494210     A.U. after   13 cycles
 SCF Done:  E(UB3LYP) =  -157.844956423     A.U. after   12 cycles
 SCF Done:  E(UB3LYP) =  -157.847057923     A.U. after   11 cycles
 SCF Done:  E(UB3LYP) =  -157.847815687     A.U. after   11 cycles
 SCF Done:  E(UB3LYP) =  -157.847898867     A.U. after    9 cycles
 SCF Done:  E(UB3LYP) =  -157.847916980     A.U. after    9 cycles
 SCF Done:  E(UB3LYP) =  -157.847914258     A.U. after    7 cycles
 SCF Done:  E(UB3LYP) =  -157.847937636     A.U. after   10 cycles
 SCF Done:  E(UB3LYP) =  -157.848047799     A.U. after   12 cycles
 SCF Done:  E(UB3LYP) =  -157.848279201     A.U. after   13 cycles
 SCF Done:  E(UB3LYP) =  -157.848317524     A.U. after   10 cycles
 SCF Done:  E(UB3LYP) =  -157.848303851     A.U. after   10 cycles
 SCF Done:  E(UB3LYP) =  -157.848324510     A.U. after   10 cycles
 SCF Done:  E(UB3LYP) =  -157.848327140     A.U. after    8 cycles
 SCF Done:  E(UB3LYP) =  -157.848327409     A.U. after    7 cycles
 Optimization completed.
    -- Stationary point found.

 1\1\GINC-MEDIAWIKI\FOpt\UB3LYP\CC-pVTZ\C4H9(2)\SAURABH\07-Apr-2022\0\\
 #p B3LYP/cc-PVTZ scf(verytight, maxcycles=1000) opt(calcfc, maxcyc=100
 0) freq(hpmodes) int(grid=ultrafine)\\Mol_01\\0,2\C,-3.4550712533,2.07
 09203901,0.2848929021\C,-2.4346088994,1.1937516485,-0.4535790201\C,-1.
 1419192537,1.9034823493,-0.6603500442\C,-2.2380660339,-0.1554769162,0.
 2514060193\H,-3.6137782124,3.0157427908,-0.2373374227\H,-3.1077930486,
 2.3004604156,1.2942618339\H,-4.419015852,1.5660198987,0.3659376783\H,-
 1.1139266899,2.9760173729,-0.7965478818\H,-0.2257500541,1.3514697381,-

 Normal termination of Gaussian 16 at Thu Apr  7 19:19:38 2022.

 -------------------------------------------------------------------
 #P Geom=AllCheck Guess=TCheck SCRF=Check GenChk UB3LYP/CC-pVTZ Freq
 -------------------------------------------------------------------

 Structure from the checkpoint file:  "Mol_01.chk"
 ------
 Mol_01
 ------
 Charge =  0 Multiplicity = 2

                         Standard orientation:
 ---------------------------------------------------------------------
 Center     Atomic      Atomic             Coordinates (Angstroms)
 Number     Number       Type             X           Y           Z
 ---------------------------------------------------------------------
      1          6           0       -1.268755   -0.679206    0.101502
      2          6           0       -0.000003    0.059715   -0.346127
      3          6           0       -0.000020    1.480077    0.101187
      4          6           0        1.268776   -0.679160    0.101437
      5          1           0       -2.166973   -0.166159   -0.245760
      6          1           0       -1.316887   -0.738399    1.190674
      7          1           0       -1.289134   -1.696251   -0.293322
      8          1           0       -0.925833    2.030515    0.198930
      9          1           0        0.925807    2.030322    0.199678
     10          1           0       -0.000067    0.052067   -1.449569
     11          1           0        1.317008   -0.738263    1.190615
     12          1           0        2.166963   -0.166147   -0.245950
     13          1           0        1.289122   -1.696240   -0.293291
 ---------------------------------------------------------------------

 SCF Done:  E(UB3LYP) =  -157.848327409     A.U. after    1 cycles

 The electronic state is 2-A.
 Alpha  occ. eigenvalues --  -10.18348 -10.17550 -10.16151 -10.16151  -0.80847
 Alpha  occ. eigenvalues --   -0.68682  -0.67657  -0.56174  -0.46266  -0.44625
 Alpha  occ. eigenvalues --   -0.43717  -0.38900  -0.37354  -0.35253  -0.34370
 Alpha  occ. eigenvalues --   -0.33689  -0.20591
 Alpha virt. eigenvalues --    0.03668   0.07656   0.07847   0.08162   0.10066
 Alpha virt. eigenvalues --    0.10480   0.11406   0.14423   0.15320   0.15646
 Alpha virt. eigenvalues --    0.19875   0.21700   0.24360   0.26995   0.28536

  Beta  occ. eigenvalues --  -10.18425 -10.16172 -10.16112 -10.16112  -0.80149
  Beta  occ. eigenvalues --   -0.68619  -0.65316  -0.55155  -0.45664  -0.44069
  Beta  occ. eigenvalues --   -0.43484  -0.38849  -0.37091  -0.34605  -0.33608
  Beta  occ. eigenvalues --   -0.33535
  Beta virt. eigenvalues --   -0.05803   0.03871   0.07671   0.08055   0.08653
  Beta virt. eigenvalues --    0.10303   0.10617   0.11542   0.14422   0.15387
  Beta virt. eigenvalues --    0.15760   0.20154   0.21799   0.24437   0.27275

 Mulliken charges and spin densities:
               1          2
     1  C   -0.287918   0.008541
     2  C    0.010823  -0.045386
     3  C   -0.296698   1.029924
     4  C   -0.287933   0.008516
     5  H    0.092228  -0.000550
     6  H    0.090611   0.004649
     7  H    0.090762   0.002619
     8  H    0.111561  -0.031537
     9  H    0.111573  -0.031537
    10  H    0.091387   0.048054
    11  H    0.090611   0.004647
    12  H    0.092231  -0.000548
    13  H    0.090763   0.002608
 Sum of Mulliken charges =  -0.00000   1.00000

 Dipole moment (field-independent basis, Debye):
    X=              0.0000    Y=             -0.1656    Z=             -0.2522  Tot=              0.3017
 Quadrupole moment (field-independent basis, Debye-Ang):
   XX=            -27.7760   YY=            -28.2442   ZZ=            -28.5677
   XY=             -0.0001   XZ=              0.0006   YZ=              0.1378

  Exact polarizability:      52.529       0.000      53.208       0.001       1.049      43.450
 Approx polarizability:      66.541       0.001      68.552       0.002       1.822      63.116

                      1                      2                      3
                      A                      A                      A
 Frequencies --    122.6150               228.7966               253.5757
 Red. masses --      1.0226                 1.0320                 1.0628
 Frc consts  --      0.0091                 0.0318                 0.0403
 IR Inten    --      0.0439                 0.0038                 0.0633

                      4                      5                      6
                      A                      A                      A
 Frequencies --    360.0523               373.7450               411.5581
 Red. masses --      2.0598                 2.1004                 1.5812
 Frc consts  --      0.1573                 0.1729                 0.1578
 IR Inten    --      0.3886                 0.1589                12.0593

                      7                      8                      9
                      A                      A                      A
 Frequencies --    542.9511               810.2077               905.9566
 Red. masses --      1.7081                 2.8924                 1.3204
 Frc consts  --      0.2967                 1.1187                 0.6385
 IR Inten    --     28.7768                 0.0248                 0.2894

                     10                     11                     12
                      A                      A                      A
 Frequencies --    947.5623               967.1558               982.2091
 Red. masses --      1.2062                 1.5319                 1.8874
 Frc consts  --      0.6381                 0.8443                 1.0728
 IR Inten    --      0.8760                 0.0032                 0.7297

                     13                     14                     15
                      A                      A                      A
 Frequencies --   1091.6563              1180.4174              1205.7344
 Red. masses --      1.4670                 1.7875                 1.7466
 Frc consts  --      1.0300                 1.4675                 1.4961
 IR Inten    --      1.0616                 0.6860                 1.1586

                     16                     17                     18
                      A                      A                      A
 Frequencies --   1318.8453              1328.2073              1399.9761
 Red. masses --      1.6447                 1.4639                 1.2208
 Frc consts  --      1.6855                 1.5216                 1.4097
 IR Inten    --      3.5314                 0.9339                 4.2226

                     19                     20                     21
                      A                      A                      A
 Frequencies --   1415.1436              1467.2682              1489.8184
 Red. masses --      1.2166                 1.1651                 1.0422
 Frc consts  --      1.4355                 1.4779                 1.3629
 IR Inten    --      3.3814                 2.0160                 0.1270

                     22                     23                     24
                      A                      A                      A
 Frequencies --   1493.3116              1503.5523              1511.3797
 Red. masses --      1.0507                 1.0446                 1.0633
 Frc consts  --      1.3805                 1.3913                 1.4310
 IR Inten    --      2.6228                 6.2320                 8.2308

                     25                     26                     27
                      A                      A                      A
 Frequencies --   2893.7842              3019.5467              3023.4866
 Red. masses --      1.0780                 1.0339                 1.0346
 Frc consts  --      5.3187                 5.5541                 5.5724
 IR Inten    --     30.2265                36.5587                19.6787

                     28                     29                     30
                      A                      A                      A
 Frequencies --   3080.7408              3084.6451              3085.0696
 Red. masses --      1.1022                 1.1014                 1.1024
 Frc consts  --      6.1637                 6.1746                 6.1816
 IR Inten    --      4.1295                52.5509                19.6887

                     31                     32                     33
                      A                      A                      A
 Frequencies --   3087.5311              3131.4525              3230.3489
 Red. masses --      1.1016                 1.0508                 1.1183
 Frc consts  --      6.1871                 6.0709                 6.8755
 IR Inten    --     53.4229                17.3960                16.1310

 - Thermochemistry -
 -------------------
 Temperature   298.150 Kelvin.  Pressure   1.00000 Atm.
 Atom     1 has atomic number  6 and mass  12.00000

 Molecular mass:    57.07043 amu.
 Principal axes and moments of inertia in atomic units:
                           1         2         3
     Eigenvalues --   213.56478 227.93954 390.38864
           X            1.00000  -0.00002   0.00001
           Y            0.00002   1.00000   0.00104
           Z           -0.00001  -0.00104   1.00000
 This molecule is an asymmetric top.
 Rotational symmetry number  1.
 Rotational temperatures (Kelvin)      0.40556     0.37999     0.22187
 Rotational constants (GHZ):           8.45056     7.91763     4.62293
 Zero-point vibrational energy     304738.5 (Joules/Mol)
                                   72.83425 (Kcal/Mol)
 Warning -- explicit consideration of   7 degrees of freedom as
           vibrations may cause significant error
 Vibrational temperatures:    176.42   329.19   364.84   518.04   537.74
          (Kelvin)            592.14   781.19  1165.71  1303.47  1363.33
                             1391.52  1413.18  1570.65  1698.36  1734.78
                             1897.52  1910.99  2014.25  2036.08  2111.07
                             2143.52  2148.54  2163.28  2174.54  4163.51
                             4344.45  4350.12  4432.50  4438.12  4438.73
                             4442.27  4505.46  4647.75

 Zero-point correction=                           0.116069 (Hartree/Particle)
 Thermal correction to Energy=                    0.122146
 Thermal correction to Enthalpy=                  0.123090
 Thermal correction to Gibbs Free Energy=         0.087383
 Sum of electronic and zero-point Energies=           -157.732259
 Sum of electronic and thermal Energies=              -157.726182
 Sum of electronic and thermal Enthalpies=            -157.725238
 Sum of electronic and thermal Free Energies=         -157.760944

                     E (Thermal)             CV                S
                      KCal/Mol        Cal/Mol-Kelvin    Cal/Mol-Kelvin
 Total                   76.648             21.075             75.152
 Electronic               0.000              0.000              1.377
 Translational            0.889              2.981             38.046
 Rotational               0.889              2.981             24.456
 Vibrational             74.870             15.113             11.272
 Vibration     1          0.610              1.930              3.059
 Vibration     2          0.651              1.797              1.888
 Vibration     3          0.665              1.757              1.706
 Vibration     4          0.735              1.555              1.122
 Vibration     5          0.745              1.526              1.064
 Vibration     6          0.776              1.445              0.921
 Vibration     7          0.898              1.155              0.559

 Optimization completed.
    -- Stationary point found.

 1\1\GINC-MEDIAWIKI\Freq\UB3LYP\CC-pVTZ\C4H9(2)\SAURABH\07-Apr-2022\0\\
 #P Geom=AllCheck Guess=TCheck SCRF=Check GenChk UB3LYP/CC-pVTZ Freq\\M
 ol_01\\0,2\C,-3.4550712533,2.0709203901,0.2848929021\C,-2.4346088994,1
 .1937516485,-0.4535790201\C,-1.1419192537,1.9034823493,-0.6603500442\C
 ,-2.2380660339,-0.1554769162,0.2514060193\H,-3.6137782124,3.0157427908
 ,-0.2373374227\H,-3.1077930486,2.3004604156,1.2942618339\H,-4.41901585
 2,1.5660198987,0.3659376783\H,-1.1139266899,2.9760173729,-0.7965478818
 \H,-0.2257500541,1.3514697381,-0.8201684948\H,-2.8632388563,0.97442746

 Normal termination of Gaussian 16 at Thu Apr  7 19:23:05 2022.
