 Gaussian 16, Revision C.01,
 Gaussian 16:  ES64L-G16RevC.01  3-Jul-2019

 ----------------------------------------------------------------------
 #p B3LYP/cc-PVTZ scf(verytight, maxcycles=1000) opt(calcfc, maxcyc=100
 0) freq(hpmodes) int(grid=ultrafine)
 ----------------------------------------------------------------------

 ------
 Mol_04
 ------
 Symbolic Z-matrix:
 Charge =  0 Multiplicity = 1

 SCF Done:  E(RB3LYP) =  -232.509213036     A.U. after   12 cycles
 SCF Done:  E(RB3LYP) =  -232.518609632     A.U. after   11 cycles
 SCF Done:  E(RB3LYP) =  -232.519025879     A.U. after   10 cycles
 SCF Done:  E(RB3LYP) =  -232.519034301     A.U. after    7 cycles
 SCF Done:  E(RB3LYP) =  -232.519035363     A.U. after    6 cycles
 Optimization completed.
    -- Stationary point found.
 Normal termination of Gaussian 16 at Thu Apr  7 20:15:21 2022.

 -------------------------------------------------------------------
 #P Geom=AllCheck Guess=TCheck SCRF=Check GenChk RB3LYP/CC-pVTZ Freq
 -------------------------------------------------------------------

 Structure from the checkpoint file:  "Mol_04.chk"
 ------
 Mol_04
 ------
 Charge =  0 Multiplicity = 1

                         Standard orientation:
 ---------------------------------------------------------------------
 Center     Atomic      Atomic             Coordinates (Angstroms)
 Number     Number       Type             X           Y           Z
 ---------------------------------------------------------------------
      1          6           0       -0.930698   -1.279992   -0.049036
      2          6           0       -0.131144    0.000000   -0.054913
      3          6           0        1.237579   -0.000000   -0.582716
      4          6           0       -0.930698    1.279992   -0.049036
      5          1           0       -0.272060   -2.146381   -0.014050
      6          1           0       -1.555426   -1.351676   -0.941587
      7          1           0       -1.587027   -1.314167    0.822839
      8          1           0       -1.555426    1.351676   -0.941587
      9          1           0       -0.272060    2.146381   -0.014050
     10          1           0       -1.587027    1.314167    0.822839
     11          8           0        1.004512   -0.000000    0.830447
     12          1           0        1.661345    0.916464   -0.981890
     13          1           0        1.661345   -0.916464   -0.981890
 ---------------------------------------------------------------------

 SCF Done:  E(RB3LYP) =  -232.519035363     A.U. after    1 cycles

 The electronic state is 1-A.
 Alpha  occ. eigenvalues --  -19.13269 -10.23664 -10.21954 -10.17052 -10.17052
 Alpha  occ. eigenvalues --   -1.06850  -0.77241  -0.70468  -0.66150  -0.56562
 Alpha  occ. eigenvalues --   -0.49385  -0.47411  -0.44644  -0.41841  -0.39950
 Alpha  occ. eigenvalues --   -0.38872  -0.36593  -0.36220  -0.29721  -0.27037
 Alpha virt. eigenvalues --    0.03447   0.06923   0.07426   0.07464   0.09821
 Alpha virt. eigenvalues --    0.10046   0.10456   0.13300   0.13906   0.14698
 Alpha virt. eigenvalues --    0.15187   0.20499   0.21335   0.24910   0.25576

 Mulliken charges:
               1
     1  C   -0.285598
     2  C    0.248749
     3  C   -0.064503
     4  C   -0.285598
     5  H    0.097142
     6  H    0.087331
     7  H    0.095723
     8  H    0.087331
     9  H    0.097142
    10  H    0.095723
    11  O   -0.331523
    12  H    0.079041
    13  H    0.079041
 Sum of Mulliken charges =  -0.00000

 Dipole moment (field-independent basis, Debye):
    X=             -0.9606    Y=              0.0000    Z=             -1.7077  Tot=              1.9594
 Quadrupole moment (field-independent basis, Debye-Ang):
   XX=            -31.5954   YY=            -30.7768   ZZ=            -33.2645
   XY=              0.0000   XZ=             -2.7046   YZ=              0.0000

  Exact polarizability:      55.450      -0.000      50.934      -3.371       0.000      44.437
 Approx polarizability:      75.187      -0.000      64.619      -2.349       0.000      68.788

                      1                      2                      3
                      A                      A                      A
 Frequencies --    182.2996               218.0260               356.0528
 Red. masses --      1.0390                 1.0627                 2.2647
 Frc consts  --      0.0203                 0.0298                 0.1692
 IR Inten    --      0.0798                 0.2245                 0.4131

                      4                      5                      6
                      A                      A                      A
 Frequencies --    360.6338               410.6438               412.8239
 Red. masses --      2.3860                 2.3056                 2.7160
 Frc consts  --      0.1828                 0.2291                 0.2727
 IR Inten    --      3.3688                 5.6972                 5.9319

                      7                      8                      9
                      A                      A                      A
 Frequencies --    700.0132               807.9259               908.0013
 Red. masses --      4.4473                 3.7790                 1.3669
 Frc consts  --      1.2840                 1.4533                 0.6640
 IR Inten    --      4.5929                31.3730                 0.0997

                     10                     11                     12
                      A                      A                      A
 Frequencies --    923.8222               959.9394              1020.4768
 Red. masses --      3.5386                 1.2539                 1.2658
 Frc consts  --      1.7793                 0.6807                 0.7766
 IR Inten    --     16.3100                 0.1682                 0.1438

                     13                     14                     15
                      A                      A                      A
 Frequencies --   1074.6552              1131.2834              1150.3799
 Red. masses --      1.7360                 1.2900                 1.9287
 Frc consts  --      1.1812                 0.9727                 1.5038
 IR Inten    --      6.6130                 2.3638                16.4725

                     16                     17                     18
                      A                      A                      A
 Frequencies --   1172.9890              1284.2192              1391.2651
 Red. masses --      1.3755                 2.6671                 2.1273
 Frc consts  --      1.1151                 2.5916                 2.4260
 IR Inten    --      0.1109                12.6214                17.5334

                     19                     20                     21
                      A                      A                      A
 Frequencies --   1413.0982              1423.4775              1476.3986
 Red. masses --      1.3784                 1.3511                 1.0472
 Frc consts  --      1.6217                 1.6130                 1.3449
 IR Inten    --     19.1461                 7.8581                 0.2592

                     22                     23                     24
                      A                      A                      A
 Frequencies --   1488.0208              1495.2216              1507.0339
 Red. masses --      1.0492                 1.0511                 1.0648
 Frc consts  --      1.3688                 1.3845                 1.4248
 IR Inten    --      1.7845                 9.1088                 3.1845

                     25                     26                     27
                      A                      A                      A
 Frequencies --   1534.6608              3024.8752              3030.1894
 Red. masses --      1.3892                 1.0360                 1.0363
 Frc consts  --      1.9276                 5.5852                 5.6062
 IR Inten    --      4.7452                15.1193                26.9290

                     28                     29                     30
                      A                      A                      A
 Frequencies --   3074.6200              3079.8161              3084.9296
 Red. masses --      1.0500                 1.1012                 1.1006
 Frc consts  --      5.8482                 6.1541                 6.1713
 IR Inten    --     29.6681                 0.0087                43.9892

                     31                     32                     33
                      A                      A                      A
 Frequencies --   3109.1838              3111.0373              3155.6317
 Red. masses --      1.1010                 1.1009                 1.1201
 Frc consts  --      6.2708                 6.2776                 6.5719
 IR Inten    --     13.4620                26.2332                28.7379

 - Thermochemistry -
 -------------------
 Temperature   298.150 Kelvin.  Pressure   1.00000 Atm.
 Atom     1 has atomic number  6 and mass  12.00000

 Molecular mass:    72.05751 amu.
 Principal axes and moments of inertia in atomic units:
                           1         2         3
     Eigenvalues --   276.88850 325.82225 459.34767
           X            0.99849   0.00000  -0.05496
           Y           -0.00000   1.00000   0.00000
           Z            0.05496  -0.00000   0.99849
 This molecule is an asymmetric top.
 Rotational symmetry number  1.
 Rotational temperatures (Kelvin)      0.31281     0.26583     0.18856
 Rotational constants (GHZ):           6.51793     5.53904     3.92892
 Zero-point vibrational energy     295918.1 (Joules/Mol)
                                   70.72613 (Kcal/Mol)
 Warning -- explicit consideration of   6 degrees of freedom as
           vibrations may cause significant error
 Vibrational temperatures:    262.29   313.69   512.28   518.87   590.82
          (Kelvin)            593.96  1007.16  1162.43  1306.41  1329.17
                             1381.14  1468.24  1546.19  1627.66  1655.14
                             1687.67  1847.70  2001.72  2033.13  2048.07
                             2124.21  2140.93  2151.29  2168.29  2208.03
                             4352.12  4359.77  4423.69  4431.17  4438.53
                             4473.42  4476.09  4540.25

 Zero-point correction=                           0.112709 (Hartree/Particle)
 Thermal correction to Energy=                    0.118479
 Thermal correction to Enthalpy=                  0.119423
 Thermal correction to Gibbs Free Energy=         0.084416
 Sum of electronic and zero-point Energies=           -232.406326
 Sum of electronic and thermal Energies=              -232.400557
 Sum of electronic and thermal Enthalpies=            -232.399612
 Sum of electronic and thermal Free Energies=         -232.434619

                     E (Thermal)             CV                S
                      KCal/Mol        Cal/Mol-Kelvin    Cal/Mol-Kelvin
 Total                   74.346             20.707             73.678
 Electronic               0.000              0.000              0.000
 Translational            0.889              2.981             38.741
 Rotational               0.889              2.981             25.230
 Vibrational             72.569             14.746              9.706
 Vibration     1          0.630              1.864              2.305
 Vibration     2          0.646              1.814              1.975
 Vibration     3          0.732              1.563              1.139
 Vibration     4          0.735              1.553              1.119
 Vibration     5          0.775              1.447              0.924
 Vibration     6          0.777              1.442              0.917

 Optimization completed.
    -- Stationary point found.
 Normal termination of Gaussian 16 at Thu Apr  7 20:18:12 2022.
