 Gaussian 16, Revision C.01,
 Gaussian 16:  ES64L-G16RevC.01  3-Jul-2019

 ----------------------------------------------------------------------
 #p B3LYP/cc-PVTZ scf(verytight, maxcycles=1000) opt(calcfc, maxcyc=100
 0) freq(hpmodes) int(grid=ultrafine)
 ----------------------------------------------------------------------

 ------
 Mol_05
 ------
 Symbolic Z-matrix:
 Charge =  0 Multiplicity = 1

 SCF Done:  E(RB3LYP) =  -157.284064291     A.U. after   12 cycles
 SCF Done:  E(RB3LYP) =  -157.287299879     A.U. after   10 cycles
 SCF Done:  E(RB3LYP) =  -157.289259701     A.U. after   12 cycles
 SCF Done:  E(RB3LYP) =  -157.289871103     A.U. after   10 cycles
 SCF Done:  E(RB3LYP) =  -157.289910637     A.U. after    9 cycles
 SCF Done:  E(RB3LYP) =  -157.290004249     A.U. after    8 cycles
 SCF Done:  E(RB3LYP) =  -157.290005526     A.U. after    7 cycles
 SCF Done:  E(RB3LYP) =  -157.290005624     A.U. after    6 cycles
 Optimization completed.
    -- Stationary point found.
 Normal termination of Gaussian 16 at Thu Apr  7 20:22:37 2022.

 -------------------------------------------------------------------
 #P Geom=AllCheck Guess=TCheck SCRF=Check GenChk RB3LYP/CC-pVTZ Freq
 -------------------------------------------------------------------

 Structure from the checkpoint file:  "Mol_05.chk"
 ------
 Mol_05
 ------
 Charge =  0 Multiplicity = 1

                         Standard orientation:
 ---------------------------------------------------------------------
 Center     Atomic      Atomic             Coordinates (Angstroms)
 Number     Number       Type             X           Y           Z
 ---------------------------------------------------------------------
      1          6           0       -1.272636   -0.676750    0.000001
      2          6           0       -0.000007    0.124048    0.000004
      3          6           0       -0.000110    1.454215   -0.000002
      4          6           0        1.272735   -0.676582    0.000001
      5          1           0       -2.153991   -0.037135    0.000036
      6          1           0       -1.322215   -1.329609    0.876239
      7          1           0       -1.322239   -1.329555   -0.876275
      8          1           0        1.322437   -1.329441    0.876233
      9          1           0        2.154004   -0.036844    0.000024
     10          1           0        1.322420   -1.329365   -0.876288
     11          1           0       -0.922249    2.021111   -0.000001
     12          1           0        0.921944    2.021249    0.000008
 ---------------------------------------------------------------------

 SCF Done:  E(RB3LYP) =  -157.290005624     A.U. after    1 cycles

 The electronic state is 1-A.
 Alpha  occ. eigenvalues --  -10.18382 -10.16738 -10.16738 -10.15398  -0.80921
 Alpha  occ. eigenvalues --   -0.69580  -0.68215  -0.52617  -0.45585  -0.44719
 Alpha  occ. eigenvalues --   -0.43513  -0.38918  -0.37353  -0.36877  -0.34162
 Alpha  occ. eigenvalues --   -0.25030
 Alpha virt. eigenvalues --    0.01421   0.03523   0.07828   0.08058   0.09688
 Alpha virt. eigenvalues --    0.10628   0.11399   0.14121   0.15351   0.16231
 Alpha virt. eigenvalues --    0.22211   0.22399   0.24780   0.25955   0.27752

 Mulliken charges:
               1
     1  C   -0.278225
     2  C    0.123109
     3  C   -0.329817
     4  C   -0.278226
     5  H    0.094365
     6  H    0.092547
     7  H    0.092547
     8  H    0.092547
     9  H    0.094365
    10  H    0.092547
    11  H    0.102120
    12  H    0.102120
 Sum of Mulliken charges =   0.00000

 Dipole moment (field-independent basis, Debye):
    X=              0.0000    Y=             -0.5504    Z=             -0.0000  Tot=              0.5504
 Quadrupole moment (field-independent basis, Debye-Ang):
   XX=            -26.0008   YY=            -26.5286   ZZ=            -28.2692
   XY=             -0.0000   XZ=              0.0000   YZ=              0.0000

  Exact polarizability:      50.545      -0.001      61.778       0.000      -0.000      36.399
 Approx polarizability:      63.763      -0.002      90.870       0.000      -0.000      53.386

                      1                      2                      3
                      A                      A                      A
 Frequencies --    172.8162               210.8870               381.2455
 Red. masses --      1.0238                 1.0764                 2.1563
 Frc consts  --      0.0180                 0.0282                 0.1847
 IR Inten    --      0.0000                 0.4043                 0.3223

                      4                      5                      6
                      A                      A                      A
 Frequencies --    440.1560               442.7760               707.2396
 Red. masses --      2.0650                 2.1384                 1.0093
 Frc consts  --      0.2357                 0.2470                 0.2974
 IR Inten    --      1.5561                 7.2771                 0.0000

                      7                      8                      9
                      A                      A                      A
 Frequencies --    814.6234               925.1425               961.6709
 Red. masses --      3.4442                 1.3284                 1.5299
 Frc consts  --      1.3467                 0.6699                 0.8336
 IR Inten    --      0.1943                43.7780                 0.0399

                     10                     11                     12
                      A                      A                      A
 Frequencies --    988.4662              1023.0717              1086.4536
 Red. masses --      1.3954                 1.2382                 1.4606
 Frc consts  --      0.8033                 0.7636                 1.0158
 IR Inten    --      0.4318                 0.0000                 3.0930

                     13                     14                     15
                      A                      A                      A
 Frequencies --   1108.9179              1297.4171              1410.9842
 Red. masses --      1.6993                 2.6555                 1.3463
 Frc consts  --      1.2311                 2.6336                 1.5792
 IR Inten    --      0.0398                 3.5470                 8.3312

                     16                     17                     18
                      A                      A                      A
 Frequencies --   1416.3024              1445.7769              1472.4631
 Red. masses --      1.1927                 1.1996                 1.0468
 Frc consts  --      1.4096                 1.4774                 1.3373
 IR Inten    --      0.3773                 1.0633                 0.0000

                     19                     20                     21
                      A                      A                      A
 Frequencies --   1485.0281              1489.9416              1503.6531
 Red. masses --      1.0440                 1.0425                 1.0710
 Frc consts  --      1.3565                 1.3635                 1.4268
 IR Inten    --      4.0704                15.5011                13.3336

                     22                     23                     24
                      A                      A                      A
 Frequencies --   1717.8689              3007.7226              3013.3153
 Red. masses --      4.9125                 1.0381                 1.0384
 Frc consts  --      8.5415                 5.5329                 5.5554
 IR Inten    --     20.7700                18.2201                41.3463

                     25                     26                     27
                      A                      A                      A
 Frequencies --   3048.1450              3050.8984              3101.8017
 Red. masses --      1.0991                 1.0985                 1.0988
 Frc consts  --      6.0164                 6.0245                 6.2287
 IR Inten    --      0.0001                45.7238                26.6815

                     28                     29                     30
                      A                      A                      A
 Frequencies --   3103.4482              3130.2230              3207.6813
 Red. masses --      1.0987                 1.0596                 1.1157
 Frc consts  --      6.2347                 6.1172                 6.7634
 IR Inten    --     19.5567                 9.2891                19.2261

 - Thermochemistry -
 -------------------
 Temperature   298.150 Kelvin.  Pressure   1.00000 Atm.
 Atom     1 has atomic number  6 and mass  12.00000

 Molecular mass:    56.06260 amu.
 Principal axes and moments of inertia in atomic units:
                           1         2         3
     Eigenvalues --   196.32474 214.56244 388.77978
           X            1.00000   0.00001  -0.00000
           Y           -0.00001   1.00000   0.00000
           Z            0.00000  -0.00000   1.00000
 This molecule is an asymmetric top.
 Rotational symmetry number  1.
 Rotational temperatures (Kelvin)      0.44118     0.40368     0.22278
 Rotational constants (GHZ):           9.19263     8.41126     4.64207
 Zero-point vibrational energy     282116.2 (Joules/Mol)
                                   67.42738 (Kcal/Mol)
 Warning -- explicit consideration of   5 degrees of freedom as
           vibrations may cause significant error
 Vibrational temperatures:    248.64   303.42   548.53   633.29   637.06
          (Kelvin)           1017.56  1172.06  1331.07  1383.63  1422.18
                             1471.97  1563.16  1595.49  1866.69  2030.09
                             2037.74  2080.15  2118.55  2136.62  2143.69
                             2163.42  2471.63  4327.44  4335.49  4385.60
                             4389.56  4462.80  4465.17  4503.69  4615.14

 Zero-point correction=                           0.107452 (Hartree/Particle)
 Thermal correction to Energy=                    0.112756
 Thermal correction to Enthalpy=                  0.113701
 Thermal correction to Gibbs Free Energy=         0.080162
 Sum of electronic and zero-point Energies=           -157.182553
 Sum of electronic and thermal Energies=              -157.177249
 Sum of electronic and thermal Enthalpies=            -157.176305
 Sum of electronic and thermal Free Energies=         -157.209844

                     E (Thermal)             CV                S
                      KCal/Mol        Cal/Mol-Kelvin    Cal/Mol-Kelvin
 Total                   70.756             18.359             70.589
 Electronic               0.000              0.000              0.000
 Translational            0.889              2.981             37.993
 Rotational               0.889              2.981             24.308
 Vibrational             68.978             12.397              8.288
 Vibration     1          0.626              1.876              2.405
 Vibration     2          0.643              1.824              2.036
 Vibration     3          0.751              1.510              1.034
 Vibration     4          0.800              1.383              0.826
 Vibration     5          0.802              1.377              0.818

 Optimization completed.
    -- Stationary point found.
 Normal termination of Gaussian 16 at Thu Apr  7 20:24:34 2022.
