 Gaussian 16, Revision C.01,
 Gaussian 16:  ES64L-G16RevC.01  3-Jul-2019

 ----------------------------------------------------------------------
 #p B3LYP/cc-PVTZ scf(verytight, maxcycles=1000) opt(calcfc, maxcyc=100
 0) freq(hpmodes) int(grid=ultrafine)
 ----------------------------------------------------------------------

 ------
 Mol_02
 ------
 Symbolic Z-matrix:
 Charge =  0 Multiplicity = 2

 SCF Done:  E(UB3LYP) =  -308.277515951     A.U. after   18 cycles
 SCF Done:  E(UB3LYP) =  -308.283658912     A.U. after   15 cycles
 SCF Done:  E(UB3LYP) =  -308.283839880     A.U. after   14 cycles
 SCF Done:  E(UB3LYP) =  -308.283851137     A.U. after   14 cycles
 SCF Done:  E(UB3LYP) =  -308.283851680     A.U. after   11 cycles
 Optimization completed.
    -- Stationary point found.
 Normal termination of Gaussian 16 at Thu Apr  7 19:36:10 2022.

 -------------------------------------------------------------------
 #P Geom=AllCheck Guess=TCheck SCRF=Check GenChk UB3LYP/CC-pVTZ Freq
 -------------------------------------------------------------------

 Structure from the checkpoint file:  "Mol_02.chk"
 ------
 Mol_02
 ------
 Charge =  0 Multiplicity = 2

                         Standard orientation:
 ---------------------------------------------------------------------
 Center     Atomic      Atomic             Coordinates (Angstroms)
 Number     Number       Type             X           Y           Z
 ---------------------------------------------------------------------
      1          6           0        1.984858   -0.899222   -0.165417
      2          6           0        0.742102   -0.013183   -0.287945
      3          6           0       -0.357775   -0.558890    0.614675
      4          6           0        1.056898    1.451677    0.021474
      5          1           0        1.768017   -1.936283   -0.426410
      6          1           0        2.382673   -0.884290    0.852243
      7          1           0        2.773082   -0.545688   -0.830684
      8          1           0        0.365338   -0.084380   -1.311772
      9          1           0        1.451260    1.560560    1.034976
     10          1           0        0.169099    2.077616   -0.062996
     11          1           0        1.807262    1.837690   -0.669400
     12          8           0       -1.609731    0.169672    0.452971
     13          8           0       -2.213630   -0.153516   -0.673092
     14          1           0       -0.116441   -0.429904    1.671111
     15          1           0       -0.569894   -1.606855    0.407174
 ---------------------------------------------------------------------

 SCF Done:  E(UB3LYP) =  -308.283851680     A.U. after    1 cycles

 The electronic state is 2-A.
 Alpha  occ. eigenvalues --  -19.24641 -19.19455 -10.23850 -10.19574 -10.17713
 Alpha  occ. eigenvalues --  -10.17053  -1.19066  -0.88629  -0.81046  -0.70059
 Alpha  occ. eigenvalues --   -0.68346  -0.58849  -0.52176  -0.51686  -0.49823
 Alpha  occ. eigenvalues --   -0.46009  -0.43951  -0.42031  -0.40142  -0.39063
 Alpha  occ. eigenvalues --   -0.36093  -0.35455  -0.34655  -0.28212  -0.27963
 Alpha virt. eigenvalues --    0.02787   0.05731   0.06280   0.06756   0.08986
 Alpha virt. eigenvalues --    0.09489   0.10641   0.11525   0.13347   0.13757
 Alpha virt. eigenvalues --    0.15149   0.16045   0.18089   0.19890   0.23826

  Beta  occ. eigenvalues --  -19.23644 -19.17532 -10.23887 -10.19538 -10.17714
  Beta  occ. eigenvalues --  -10.17054  -1.16407  -0.86093  -0.80070  -0.70040
  Beta  occ. eigenvalues --   -0.67472  -0.58417  -0.51250  -0.50299  -0.47328
  Beta  occ. eigenvalues --   -0.45557  -0.42074  -0.40261  -0.39839  -0.38810
  Beta  occ. eigenvalues --   -0.35507  -0.34568  -0.34160  -0.26486
  Beta virt. eigenvalues --   -0.11139   0.02838   0.05850   0.06525   0.06804
  Beta virt. eigenvalues --    0.09393   0.09558   0.10946   0.11624   0.13449
  Beta virt. eigenvalues --    0.14031   0.15632   0.16325   0.18586   0.19992

 Mulliken charges and spin densities:
               1          2
     1  C   -0.303209  -0.000806
     2  C   -0.047142   0.016256
     3  C    0.008700  -0.018887
     4  C   -0.294017   0.001857
     5  H    0.098279  -0.000146
     6  H    0.088559   0.000585
     7  H    0.101889   0.000640
     8  H    0.106964  -0.001064
     9  H    0.083678   0.000239
    10  H    0.109156  -0.001388
    11  H    0.097135  -0.000208
    12  O   -0.055658   0.299271
    13  O   -0.181839   0.692557
    14  H    0.088758   0.000417
    15  H    0.098745   0.010676
 Sum of Mulliken charges =  -0.00000   1.00000

 Dipole moment (field-independent basis, Debye):
    X=              2.5809    Y=             -0.6217    Z=              0.8319  Tot=              2.7820
 Quadrupole moment (field-independent basis, Debye-Ang):
   XX=            -43.3819   YY=            -37.1796   ZZ=            -37.3451
   XY=              0.6681   XZ=             -1.5231   YZ=             -0.8400

  Exact polarizability:      64.963      -0.387      55.463       4.123       0.265      54.048
 Approx polarizability:      83.302      -0.093      73.516       9.113       2.111      84.198

                      1                      2                      3
                      A                      A                      A
 Frequencies --     76.3854               109.0916               219.3306
 Red. masses --      4.7896                 3.6381                 1.0656
 Frc consts  --      0.0165                 0.0255                 0.0302
 IR Inten    --      1.5740                 2.0580                 0.0516

                      4                      5                      6
                      A                      A                      A
 Frequencies --    234.7808               250.5676               332.9370
 Red. masses --      1.6008                 1.7544                 2.4324
 Frc consts  --      0.0520                 0.0649                 0.1589
 IR Inten    --      1.1928                 1.2332                 0.6676

                      7                      8                      9
                      A                      A                      A
 Frequencies --    415.6778               418.0864               564.9671
 Red. masses --      2.5168                 2.0470                 4.0768
 Frc consts  --      0.2562                 0.2108                 0.7667
 IR Inten    --      0.9288                 2.6616                 2.7363

                     10                     11                     12
                      A                      A                      A
 Frequencies --    817.4196               873.4656               937.6780
 Red. masses --      2.6899                 2.5885                 1.2480
 Frc consts  --      1.0590                 1.1636                 0.6465
 IR Inten    --      3.4534                 9.3379                 1.1381

                     13                     14                     15
                      A                      A                      A
 Frequencies --    946.8789               956.3792               975.5436
 Red. masses --      1.9063                 1.6116                 1.6082
 Frc consts  --      1.0070                 0.8685                 0.9017
 IR Inten    --     12.8846                 1.8777                 0.5327

                     16                     17                     18
                      A                      A                      A
 Frequencies --   1139.3979              1152.2855              1197.0320
 Red. masses --      2.2592                 4.1251                 1.8053
 Frc consts  --      1.7281                 3.2271                 1.5241
 IR Inten    --      0.6420                 4.0181                 3.9917

                     19                     20                     21
                      A                      A                      A
 Frequencies --   1201.2073              1290.4553              1327.6167
 Red. masses --      2.3417                 1.2765                 1.2703
 Frc consts  --      1.9907                 1.2525                 1.3192
 IR Inten    --      3.6807                 3.3853                 2.9716

                     22                     23                     24
                      A                      A                      A
 Frequencies --   1376.5753              1384.3715              1407.0402
 Red. masses --      1.3677                 1.3652                 1.2382
 Frc consts  --      1.5270                 1.5415                 1.4443
 IR Inten    --      2.8847                 0.4423                 6.2723

                     25                     26                     27
                      A                      A                      A
 Frequencies --   1427.6585              1476.2450              1491.5985
 Red. masses --      1.2245                 1.0893                 1.0448
 Frc consts  --      1.4704                 1.3987                 1.3696
 IR Inten    --      5.9677                 2.4949                 0.5481

                     28                     29                     30
                      A                      A                      A
 Frequencies --   1496.6487              1507.2019              1512.7898
 Red. masses --      1.0519                 1.0501                 1.0525
 Frc consts  --      1.3882                 1.4055                 1.4192
 IR Inten    --      3.7339                 5.3758                13.1880

                     31                     32                     33
                      A                      A                      A
 Frequencies --   3020.2410              3021.6721              3030.2480
 Red. masses --      1.0374                 1.0528                 1.0666
 Frc consts  --      5.5756                 5.6638                 5.7704
 IR Inten    --     21.4169                11.2196                10.4521

                     34                     35                     36
                      A                      A                      A
 Frequencies --   3050.1113              3078.3494              3084.5650
 Red. masses --      1.0576                 1.0994                 1.0987
 Frc consts  --      5.7970                 6.1385                 6.1593
 IR Inten    --     24.4086                12.6923                37.2894

                     37                     38                     39
                      A                      A                      A
 Frequencies --   3093.0823              3103.3409              3108.1994
 Red. masses --      1.1011                 1.1011                 1.1088
 Frc consts  --      6.2067                 6.2480                 6.3115
 IR Inten    --     31.3365                20.2520                21.2242

 - Thermochemistry -
 -------------------
 Temperature   298.150 Kelvin.  Pressure   1.00000 Atm.
 Atom     1 has atomic number  6 and mass  12.00000

 Molecular mass:    89.06025 amu.
 Principal axes and moments of inertia in atomic units:
                           1         2         3
     Eigenvalues --   291.70094 836.78446 955.44603
           X            0.99996  -0.00127  -0.00838
           Y            0.00115   0.99990  -0.01434
           Z            0.00840   0.01433   0.99986
 This molecule is an asymmetric top.
 Rotational symmetry number  1.
 Rotational temperatures (Kelvin)      0.29693     0.10351     0.09065
 Rotational constants (GHZ):           6.18696     2.15676     1.88890
 Zero-point vibrational energy     335595.1 (Joules/Mol)
                                   80.20916 (Kcal/Mol)
 Warning -- explicit consideration of   9 degrees of freedom as
           vibrations may cause significant error
 Vibrational temperatures:    109.90   156.96   315.57   337.80   360.51
          (Kelvin)            479.02   598.07   601.53   812.86  1176.08
                             1256.72  1349.11  1362.35  1376.02  1403.59
                             1639.34  1657.88  1722.26  1728.27  1856.68
                             1910.14  1980.58  1991.80  2024.42  2054.08
                             2123.99  2146.08  2153.34  2168.53  2176.57
                             4345.45  4347.51  4359.85  4388.43  4429.06
                             4438.00  4450.26  4465.02  4472.01

 Zero-point correction=                           0.127821 (Hartree/Particle)
 Thermal correction to Energy=                    0.135286
 Thermal correction to Enthalpy=                  0.136230
 Thermal correction to Gibbs Free Energy=         0.095733
 Sum of electronic and zero-point Energies=           -308.156030
 Sum of electronic and thermal Energies=              -308.148566
 Sum of electronic and thermal Enthalpies=            -308.147622
 Sum of electronic and thermal Free Energies=         -308.188119

                     E (Thermal)             CV                S
                      KCal/Mol        Cal/Mol-Kelvin    Cal/Mol-Kelvin
 Total                   84.893             25.686             85.233
 Electronic               0.000              0.000              1.377
 Translational            0.889              2.981             39.373
 Rotational               0.889              2.981             26.947
 Vibrational             83.116             19.724             17.536
 Vibration     1          0.599              1.965              3.982
 Vibration     2          0.606              1.942              3.285
 Vibration     3          0.647              1.812              1.965
 Vibration     4          0.655              1.788              1.842
 Vibration     5          0.663              1.762              1.727
 Vibration     6          0.715              1.610              1.246
 Vibration     7          0.779              1.436              0.907
 Vibration     8          0.781              1.431              0.898
 Vibration     9          0.921              1.107              0.514

 Optimization completed.
    -- Stationary point found.
 Normal termination of Gaussian 16 at Thu Apr  7 19:44:02 2022.
