 Gaussian 16, Revision B.01,
 Gaussian 16:  ES64L-G16RevB.01 20-Dec-2017

 ---------------------------------------------------
 # opt=(calcfc,ts,noeigentest) freq ub3lyp cc-pvtz+d
 ---------------------------------------------------

 -----------------------------------------
 RisobO2-Concerted-OOH-Elim-TS2-b3lyp-c-N2
 -----------------------------------------
 Symbolic Z-matrix:
 Charge =  0 Multiplicity = 2

 SCF Done:  E(UB3LYP) =  -308.213413710     A.U. after   17 cycles
 SCF Done:  E(UB3LYP) =  -308.221861685     A.U. after   15 cycles
 SCF Done:  E(UB3LYP) =  -308.229415642     A.U. after   15 cycles
 SCF Done:  E(UB3LYP) =  -308.233389987     A.U. after   15 cycles
 SCF Done:  E(UB3LYP) =  -308.234131762     A.U. after   14 cycles
 SCF Done:  E(UB3LYP) =  -308.234157973     A.U. after   14 cycles
 SCF Done:  E(UB3LYP) =  -308.234017602     A.U. after   18 cycles
 SCF Done:  E(UB3LYP) =  -308.234151522     A.U. after   17 cycles
 SCF Done:  E(UB3LYP) =  -308.234178845     A.U. after   13 cycles
 SCF Done:  E(UB3LYP) =  -308.234179392     A.U. after   12 cycles
 SCF Done:  E(UB3LYP) =  -308.234179936     A.U. after    9 cycles
 Optimization completed.
    -- Stationary point found.
 Normal termination of Gaussian 16 at Sat Apr  9 19:44:03 2022.

 ---------------------------------------------------------------------
 #N Geom=AllCheck Guess=TCheck SCRF=Check GenChk UB3LYP/CC-pVTZ+d Freq
 ---------------------------------------------------------------------

 Structure from the checkpoint file:  "RisobO2-Concerted-OOH-Elim-TS2-b3lyp-c-N2.chk"
 -----------------------------------------
 RisobO2-Concerted-OOH-Elim-TS2-b3lyp-c-N2
 -----------------------------------------
 Charge =  0 Multiplicity = 2

                         Standard orientation:
 ---------------------------------------------------------------------
 Center     Atomic      Atomic             Coordinates (Angstroms)
 Number     Number       Type             X           Y           Z
 ---------------------------------------------------------------------
      1          6           0       -0.103419    0.000576    1.260337
      2          1           0       -0.371480   -0.915374    1.766499
      3          1           0       -0.371297    0.917222    1.765367
      4          6           0        0.704754    0.000003    0.129033
      5          1           0       -0.335511    0.000470   -0.666622
      6          6           0        1.428132   -1.286073   -0.258379
      7          1           0        1.616142   -1.325179   -1.332347
      8          1           0        2.396191   -1.352011    0.244308
      9          1           0        0.847036   -2.167747    0.012042
     10          6           0        1.429550    1.285173   -0.258734
     11          1           0        1.617564    1.323813   -1.332720
     12          1           0        0.849467    2.167571    0.011506
     13          1           0        2.397693    1.350129    0.243910
     14          8           0       -2.052038   -0.000121    0.225095
     15          8           0       -1.622950    0.000500   -0.968280
 ---------------------------------------------------------------------

 SCF Done:  E(UB3LYP) =  -308.234179936     A.U. after    1 cycles

 The electronic state is 2-A.
 Alpha  occ. eigenvalues --  -19.22262 -19.21575 -10.20867 -10.19144 -10.17677
 Alpha  occ. eigenvalues --  -10.17676  -1.20392  -0.83000  -0.80313  -0.70310
 Alpha  occ. eigenvalues --   -0.69999  -0.56460  -0.52713  -0.49929  -0.48004
 Alpha  occ. eigenvalues --   -0.46741  -0.45619  -0.43813  -0.40016  -0.38823
 Alpha  occ. eigenvalues --   -0.37855  -0.35459  -0.29594  -0.27218  -0.26348
 Alpha virt. eigenvalues --   -0.04900   0.03225   0.06911   0.07027   0.08814
 Alpha virt. eigenvalues --    0.08829   0.10383   0.12651   0.13480   0.14332
 Alpha virt. eigenvalues --    0.15677   0.17993   0.20956   0.21342   0.23115

  Beta  occ. eigenvalues --  -19.20812 -19.19822 -10.20958 -10.19132 -10.17679
  Beta  occ. eigenvalues --  -10.17678  -1.17296  -0.83004  -0.75926  -0.70310
  Beta  occ. eigenvalues --   -0.70036  -0.56321  -0.51819  -0.47429  -0.46505
  Beta  occ. eigenvalues --   -0.45337  -0.43402  -0.40546  -0.39918  -0.38729
  Beta  occ. eigenvalues --   -0.37862  -0.35434  -0.28785  -0.25274
  Beta virt. eigenvalues --   -0.09698  -0.04612   0.03212   0.06917   0.07062
  Beta virt. eigenvalues --    0.08856   0.08861   0.10406   0.12912   0.13490
  Beta virt. eigenvalues --    0.14339   0.15802   0.19229   0.21306   0.21379

 Mulliken charges and spin densities:
               1          2
     1  C   -0.206145  -0.065085
     2  H    0.134177   0.002014
     3  H    0.134178   0.002016
     4  C   -0.004994   0.004893
     5  H    0.188653  -0.017723
     6  C   -0.292812   0.000207
     7  H    0.099000   0.000217
     8  H    0.096460  -0.000025
     9  H    0.098516  -0.000049
    10  C   -0.292782   0.000200
    11  H    0.099002   0.000215
    12  H    0.098503  -0.000045
    13  H    0.096459  -0.000024
    14  O   -0.140912   0.594768
    15  O   -0.107303   0.478422
 Sum of Mulliken charges =  -0.00000   1.00000

 Dipole moment (field-independent basis, Debye):
    X=              2.2705    Y=              0.0004    Z=              0.8792  Tot=              2.4347
 Quadrupole moment (field-independent basis, Debye-Ang):
   XX=            -42.8543   YY=            -36.6466   ZZ=            -37.2343
   XY=              0.0001   XZ=             -1.5675   YZ=              0.0007

  Exact polarizability:  74.437   0.003  54.755   1.013   0.002  63.644
 Approx polarizability: 114.997   0.007  71.642   8.146   0.001 115.232

 ******    1 imaginary frequencies (negative Signs) ******

                      1                      2                      3
                      A                      A                      A
 Frequencies --   -920.2987               122.2922               179.9021
 Red. masses --      1.5821                 3.2804                 2.2602
 Frc consts  --      0.7895                 0.0289                 0.0431
 IR Inten    --     88.2935                 1.8209                 0.1665

                      4                      5                      6
                      A                      A                      A
 Frequencies --    192.5073               208.2988               257.9623
 Red. masses --      1.5272                 1.0288                 3.5145
 Frc consts  --      0.0333                 0.0263                 0.1378
 IR Inten    --      0.0005                 0.1766                 4.1721

                      7                      8                      9
                      A                      A                      A
 Frequencies --    366.5070               372.9122               416.7113
 Red. masses --      3.5613                 2.6542                 1.9895
 Frc consts  --      0.2819                 0.2175                 0.2036
 IR Inten    --     18.1204                 8.5624                 0.0804

                     10                     11                     12
                      A                      A                      A
 Frequencies --    546.4520               683.1347               756.3789
 Red. masses --      2.5690                 5.9793                 1.0577
 Frc consts  --      0.4520                 1.6441                 0.3565
 IR Inten    --     14.1093                 2.1875                 0.0762

                     13                     14                     15
                      A                      A                      A
 Frequencies --    843.0233               943.4251               972.8798
 Red. masses --      2.6377                 1.6285                 1.2228
 Frc consts  --      1.1045                 0.8540                 0.6819
 IR Inten    --     14.1176                 0.3350                 0.9576

                     16                     17                     18
                      A                      A                      A
 Frequencies --    989.9748              1017.4941              1074.9199
 Red. masses --      1.2372                 1.3111                 1.4697
 Frc consts  --      0.7144                 0.7997                 1.0005
 IR Inten    --      0.2992                 0.5250                 9.2098

                     19                     20                     21
                      A                      A                      A
 Frequencies --   1132.9713              1209.6971              1288.8704
 Red. masses --      1.6067                 1.2859                 2.0394
 Frc consts  --      1.2152                 1.1087                 1.9960
 IR Inten    --     49.6426                11.4486                 0.8334

                     22                     23                     24
                      A                      A                      A
 Frequencies --   1327.1116              1408.8980              1414.5012
 Red. masses --      7.0431                 1.2207                 1.4716
 Frc consts  --      7.3085                 1.4276                 1.7347
 IR Inten    --    184.9713                 4.2412                18.1837

                     25                     26                     27
                      A                      A                      A
 Frequencies --   1424.5769              1483.1828              1495.0807
 Red. masses --      1.2475                 1.0450                 1.0561
 Frc consts  --      1.4916                 1.3545                 1.3909
 IR Inten    --      0.1479                 0.1315                15.6838

                     28                     29                     30
                      A                      A                      A
 Frequencies --   1498.6456              1508.6753              1568.5048
 Red. masses --      1.0475                 1.0641                 1.1170
 Frc consts  --      1.3861                 1.4270                 1.6191
 IR Inten    --      5.0037                 3.8754                36.5136

                     31                     32                     33
                      A                      A                      A
 Frequencies --   1588.1585              3019.0304              3022.3352
 Red. masses --      2.1422                 1.0369                 1.0377
 Frc consts  --      3.1835                 5.5682                 5.5847
 IR Inten    --     18.8758                25.8895                37.1174

                     34                     35                     36
                      A                      A                      A
 Frequencies --   3073.2892              3074.7033              3096.5168
 Red. masses --      1.0992                 1.0983                 1.1017
 Frc consts  --      6.1170                 6.1177                 6.2241
 IR Inten    --      2.5130                39.1099                15.4113

                     37                     38                     39
                      A                      A                      A
 Frequencies --   3097.7930              3153.4326              3239.1244
 Red. masses --      1.1014                 1.0575                 1.1179
 Frc consts  --      6.2273                 6.1956                 6.9105
 IR Inten    --     30.0849                 8.8719                 6.2047

 - Thermochemistry -
 -------------------
 Temperature   298.150 Kelvin.  Pressure   1.00000 Atm.
 Atom     1 has atomic number  6 and mass  12.00000

 Molecular mass:    89.06025 amu.
 Principal axes and moments of inertia in atomic units:
                           1         2         3
     Eigenvalues --   375.04184 819.69503 859.22949
           X            0.99954   0.00002  -0.03026
           Y           -0.00001   1.00000   0.00009
           Z            0.03026  -0.00009   0.99954
 This molecule is an asymmetric top.
 Rotational symmetry number  1.
 Rotational temperatures (Kelvin)      0.23094     0.10567     0.10080
 Rotational constants (GHZ):           4.81211     2.20172     2.10042
    1 imaginary frequencies ignored.
 Zero-point vibrational energy     317428.3 (Joules/Mol)
                                   75.86720 (Kcal/Mol)
 Warning -- explicit consideration of   9 degrees of freedom as
           vibrations may cause significant error
 Vibrational temperatures:    175.95   258.84   276.98   299.70   371.15
          (Kelvin)            527.32   536.54   599.55   786.22   982.88
                             1088.26  1212.92  1357.38  1399.76  1424.35
                             1463.95  1546.57  1630.09  1740.48  1854.40
                             1909.42  2027.09  2035.15  2049.65  2133.97
                             2151.09  2156.22  2170.65  2256.73  2285.01
                             4343.71  4348.47  4421.78  4423.81  4455.20
                             4457.03  4537.09  4660.38

 Zero-point correction=                           0.120902 (Hartree/Particle)
 Thermal correction to Energy=                    0.128355
 Thermal correction to Enthalpy=                  0.129299
 Thermal correction to Gibbs Free Energy=         0.089267
 Sum of electronic and zero-point Energies=           -308.113278
 Sum of electronic and thermal Energies=              -308.105825
 Sum of electronic and thermal Enthalpies=            -308.104881
 Sum of electronic and thermal Free Energies=         -308.144913

                     E (Thermal)             CV                S
                      KCal/Mol        Cal/Mol-Kelvin    Cal/Mol-Kelvin
 Total                   80.544             26.366             84.254
 Electronic               0.000              0.000              1.377
 Translational            0.889              2.981             39.373
 Rotational               0.889              2.981             27.071
 Vibrational             78.766             20.405             16.433
 Vibration     1          0.610              1.931              3.064
 Vibration     2          0.629              1.867              2.329
 Vibration     3          0.634              1.850              2.204
 Vibration     4          0.642              1.828              2.059
 Vibration     5          0.667              1.749              1.676
 Vibration     6          0.739              1.541              1.094
 Vibration     7          0.744              1.528              1.068
 Vibration     8          0.780              1.434              0.903
 Vibration     9          0.902              1.147              0.552

                           ! Non-Optimized Parameters !
 Normal termination of Gaussian 16 at Sat Apr  9 19:48:24 2022.
