 Gaussian 16, Revision B.01,
 Gaussian 16:  ES64L-G16RevB.01 20-Dec-2017

 ---------------------------------------------------
 # opt=(calcfc,ts,noeigentest) freq ub3lyp cc-pvtz+d
 ---------------------------------------------------

 -------------------------------
 QOOHisob-OH-Elim-TS5-b3lyp-c-N1
 -------------------------------
 Symbolic Z-matrix:
 Charge =  0 Multiplicity = 2

 SCF Done:  E(UB3LYP) =  -308.236094525     A.U. after   19 cycles
 SCF Done:  E(UB3LYP) =  -308.239969111     A.U. after   18 cycles
 SCF Done:  E(UB3LYP) =  -308.244673426     A.U. after   17 cycles
 SCF Done:  E(UB3LYP) =  -308.245786491     A.U. after   16 cycles
 SCF Done:  E(UB3LYP) =  -308.245911400     A.U. after   16 cycles
 SCF Done:  E(UB3LYP) =  -308.245960766     A.U. after   14 cycles
 SCF Done:  E(UB3LYP) =  -308.245980591     A.U. after   14 cycles
 SCF Done:  E(UB3LYP) =  -308.245986430     A.U. after   14 cycles
 SCF Done:  E(UB3LYP) =  -308.245985685     A.U. after   12 cycles
 SCF Done:  E(UB3LYP) =  -308.245995027     A.U. after   12 cycles
 SCF Done:  E(UB3LYP) =  -308.246033699     A.U. after   14 cycles
 SCF Done:  E(UB3LYP) =  -308.246041761     A.U. after   15 cycles
 SCF Done:  E(UB3LYP) =  -308.246043088     A.U. after   11 cycles
 SCF Done:  E(UB3LYP) =  -308.246045275     A.U. after   12 cycles
 SCF Done:  E(UB3LYP) =  -308.246046170     A.U. after   10 cycles
 SCF Done:  E(UB3LYP) =  -308.246046926     A.U. after   11 cycles
 SCF Done:  E(UB3LYP) =  -308.246048014     A.U. after   11 cycles
 SCF Done:  E(UB3LYP) =  -308.246048684     A.U. after   11 cycles
 SCF Done:  E(UB3LYP) =  -308.246048732     A.U. after   10 cycles
 Optimization completed.
    -- Stationary point found.
 Normal termination of Gaussian 16 at Sat Apr  9 23:39:31 2022.

 ---------------------------------------------------------------------
 #N Geom=AllCheck Guess=TCheck SCRF=Check GenChk UB3LYP/CC-pVTZ+d Freq
 ---------------------------------------------------------------------

 Structure from the checkpoint file:  "QOOHisob-OH-Elim-TS5-b3lyp-c-N1.chk"
 -------------------------------
 QOOHisob-OH-Elim-TS5-b3lyp-c-N1
 -------------------------------
 Charge =  0 Multiplicity = 2

                         Standard orientation:
 ---------------------------------------------------------------------
 Center     Atomic      Atomic             Coordinates (Angstroms)
 Number     Number       Type             X           Y           Z
 ---------------------------------------------------------------------
      1          6           0        0.365522   -0.041112    0.874498
      2          1           0        0.608783    0.842364    1.470600
      3          1           0        0.566038   -0.954671    1.440864
      4          6           0       -0.933526    0.002640    0.175068
      5          1           0        2.843522    0.598261   -0.854025
      6          6           0       -1.559262    1.308674   -0.158355
      7          1           0       -1.916489    1.334855   -1.190242
      8          1           0       -2.436990    1.476166    0.480001
      9          1           0       -0.870538    2.136541   -0.003271
     10          6           0       -1.611276   -1.259903   -0.218232
     11          1           0       -1.992082   -1.214122   -1.240760
     12          1           0       -0.946062   -2.116033   -0.128815
     13          1           0       -2.478840   -1.436138    0.431844
     14          8           0        0.948000   -0.035001   -0.394531
     15          8           0        2.683739   -0.056126   -0.160977
 ---------------------------------------------------------------------

 SCF Done:  E(UB3LYP) =  -308.246048732     A.U. after    1 cycles

 The electronic state is 2-A.
 Alpha  occ. eigenvalues --  -19.15311 -19.12481 -10.23733 -10.22353 -10.18798
 Alpha  occ. eigenvalues --  -10.18638  -1.02723  -0.93415  -0.81361  -0.72080
 Alpha  occ. eigenvalues --   -0.67304  -0.56696  -0.48965  -0.48759  -0.46180
 Alpha  occ. eigenvalues --   -0.43407  -0.42819  -0.41252  -0.40256  -0.38101
 Alpha  occ. eigenvalues --   -0.37476  -0.34322  -0.29570  -0.25307  -0.21275
 Alpha virt. eigenvalues --   -0.04214   0.02497   0.06258   0.06956   0.07902
 Alpha virt. eigenvalues --    0.08795   0.09355   0.09634   0.12433   0.13295
 Alpha virt. eigenvalues --    0.14509   0.14780   0.20839   0.21432   0.24935

  Beta  occ. eigenvalues --  -19.15476 -19.11057 -10.22830 -10.22414 -10.18851
  Beta  occ. eigenvalues --  -10.18690  -1.02275  -0.90523  -0.80279  -0.71910
  Beta  occ. eigenvalues --   -0.67104  -0.55706  -0.48598  -0.48231  -0.45146
  Beta  occ. eigenvalues --   -0.42847  -0.41944  -0.40794  -0.40072  -0.37849
  Beta  occ. eigenvalues --   -0.37086  -0.31666  -0.28936  -0.24598
  Beta virt. eigenvalues --   -0.09651  -0.00242   0.02584   0.06428   0.07043
  Beta virt. eigenvalues --    0.08043   0.09170   0.09471   0.09677   0.12624
  Beta virt. eigenvalues --    0.13965   0.14559   0.15246   0.20930   0.21578

 Mulliken charges and spin densities:
               1          2
     1  C    0.080876  -0.025015
     2  H    0.060408   0.004856
     3  H    0.068695   0.004350
     4  C    0.103960   0.582591
     5  H    0.215961  -0.005183
     6  C   -0.273925  -0.028057
     7  H    0.104168   0.018059
     8  H    0.101459   0.035016
     9  H    0.112082   0.001228
    10  C   -0.273343  -0.028099
    11  H    0.102386   0.016972
    12  H    0.118133   0.001672
    13  H    0.100251   0.036156
    14  O   -0.284829  -0.130681
    15  O   -0.336283   0.516134
 Sum of Mulliken charges =  -0.00000   1.00000

 Dipole moment (field-independent basis, Debye):
    X=             -3.4707    Y=              1.0029    Z=              0.3028  Tot=              3.6253
 Quadrupole moment (field-independent basis, Debye-Ang):
   XX=            -39.7271   YY=            -35.6297   ZZ=            -36.4133
   XY=              3.1564   XZ=             -1.4356   YZ=             -1.2421

  Exact polarizability: 111.069   1.144  57.103  -1.885  -1.130  51.302
 Approx polarizability: 168.607  -0.572  74.723  -8.034  -1.943  75.755

 ******    1 imaginary frequencies (negative Signs) ******

                      1                      2                      3
                      A                      A                      A
 Frequencies --   -651.7600                78.8946                96.5472
 Red. masses --     12.0236                 4.0561                 1.0560
 Frc consts  --      3.0093                 0.0149                 0.0058
 IR Inten    --    242.3205                 0.5856                 1.6721

                      4                      5                      6
                      A                      A                      A
 Frequencies --    111.5576               124.7809               191.1735
 Red. masses --      1.1815                 1.0512                 2.9811
 Frc consts  --      0.0087                 0.0096                 0.0642
 IR Inten    --     21.7587                74.8176                 3.9208

                      7                      8                      9
                      A                      A                      A
 Frequencies --    203.4085               282.9919               388.0618
 Red. masses --      3.6156                 4.7065                 2.2822
 Frc consts  --      0.0881                 0.2221                 0.2025
 IR Inten    --      9.4106                12.1125                 0.7249

                     10                     11                     12
                      A                      A                      A
 Frequencies --    402.8686               434.3460               766.4297
 Red. masses --      2.1554                 3.6885                 3.5199
 Frc consts  --      0.2061                 0.4100                 1.2182
 IR Inten    --      0.1367                 9.2711                 7.6815

                     13                     14                     15
                      A                      A                      A
 Frequencies --    923.0601               935.8733               980.8702
 Red. masses --      1.2919                 1.2008                 1.2211
 Frc consts  --      0.6486                 0.6197                 0.6922
 IR Inten    --      2.2548                85.0788                 0.5412

                     16                     17                     18
                      A                      A                      A
 Frequencies --    992.8149              1017.6637              1054.6418
 Red. masses --      1.8757                 1.4724                 1.5602
 Frc consts  --      1.0893                 0.8984                 1.0224
 IR Inten    --      9.8282                 1.7104                 8.7136

                     19                     20                     21
                      A                      A                      A
 Frequencies --   1098.7156              1176.3438              1287.3300
 Red. masses --      3.1831                 1.2175                 1.4254
 Frc consts  --      2.2639                 0.9926                 1.3918
 IR Inten    --     28.4994                 1.1371                 0.9248

                     22                     23                     24
                      A                      A                      A
 Frequencies --   1315.7163              1365.3611              1403.7770
 Red. masses --      2.4524                 2.3873                 1.3537
 Frc consts  --      2.5013                 2.6221                 1.5717
 IR Inten    --      6.7119                13.5876                17.0746

                     25                     26                     27
                      A                      A                      A
 Frequencies --   1411.1883              1459.2924              1475.4304
 Red. masses --      1.2070                 1.0558                 1.0683
 Frc consts  --      1.4162                 1.3247                 1.3701
 IR Inten    --      0.3493                 1.1782                 2.9528

                     28                     29                     30
                      A                      A                      A
 Frequencies --   1477.9044              1499.0488              1535.7380
 Red. masses --      1.0573                 1.1264                 1.1317
 Frc consts  --      1.3606                 1.4914                 1.5726
 IR Inten    --     12.8673                 9.7650                 5.3933

                     31                     32                     33
                      A                      A                      A
 Frequencies --   2976.7452              2981.8922              3004.2764
 Red. masses --      1.0544                 1.0556                 1.0520
 Frc consts  --      5.5050                 5.5299                 5.5944
 IR Inten    --      5.4555                39.0107                58.1798

                     34                     35                     36
                      A                      A                      A
 Frequencies --   3047.0586              3050.8414              3051.2920
 Red. masses --      1.0811                 1.0809                 1.1102
 Frc consts  --      5.9140                 5.9277                 6.0902
 IR Inten    --      3.1354                24.7613                44.3824

                     37                     38                     39
                      A                      A                      A
 Frequencies --   3116.2985              3118.9940              3785.1107
 Red. masses --      1.0977                 1.0980                 1.0679
 Frc consts  --      6.2807                 6.2936                 9.0144
 IR Inten    --     12.0704                 9.0156                50.1080

 - Thermochemistry -
 -------------------
 Temperature   298.150 Kelvin.  Pressure   1.00000 Atm.
 Atom     1 has atomic number  6 and mass  12.00000

 Molecular mass:    89.06025 amu.
 Principal axes and moments of inertia in atomic units:
                           1         2         3
     Eigenvalues --   285.90165 905.730231036.48628
           X            0.99992   0.00919   0.00883
           Y           -0.00910   0.99991  -0.00972
           Z           -0.00892   0.00964   0.99991
 This molecule is an asymmetric top.
 Rotational symmetry number  1.
 Rotational temperatures (Kelvin)      0.30295     0.09563     0.08356
 Rotational constants (GHZ):           6.31245     1.99258     1.74121
    1 imaginary frequencies ignored.
 Zero-point vibrational energy     320744.8 (Joules/Mol)
                                   76.65984 (Kcal/Mol)
 Warning -- explicit consideration of  10 degrees of freedom as
           vibrations may cause significant error
 Vibrational temperatures:    113.51   138.91   160.51   179.53   275.06
          (Kelvin)            292.66   407.16   558.33   579.64   624.93
                             1102.72  1328.08  1346.51  1411.25  1428.44
                             1464.19  1517.39  1580.81  1692.50  1852.18
                             1893.02  1964.45  2019.72  2030.39  2099.60
                             2122.82  2126.37  2156.80  2209.58  4282.87
                             4290.28  4322.48  4384.04  4389.48  4390.13
                             4483.66  4487.54  5445.93

 Zero-point correction=                           0.122165 (Hartree/Particle)
 Thermal correction to Energy=                    0.130835
 Thermal correction to Enthalpy=                  0.131779
 Thermal correction to Gibbs Free Energy=         0.088396
 Sum of electronic and zero-point Energies=           -308.123883
 Sum of electronic and thermal Energies=              -308.115214
 Sum of electronic and thermal Enthalpies=            -308.114270
 Sum of electronic and thermal Free Energies=         -308.157653

                     E (Thermal)             CV                S
                      KCal/Mol        Cal/Mol-Kelvin    Cal/Mol-Kelvin
 Total                   82.100             28.099             91.307
 Electronic               0.000              0.000              1.377
 Translational            0.889              2.981             39.373
 Rotational               0.889              2.981             27.087
 Vibrational             80.322             22.137             23.470
 Vibration     1          0.600              1.963              3.918
 Vibration     2          0.603              1.952              3.523
 Vibration     3          0.607              1.940              3.242
 Vibration     4          0.610              1.928              3.025
 Vibration     5          0.634              1.852              2.216
 Vibration     6          0.639              1.835              2.102
 Vibration     7          0.682              1.705              1.516
 Vibration     8          0.756              1.496              1.008
 Vibration     9          0.768              1.464              0.952
 Vibration    10          0.795              1.395              0.845

 Optimization completed.
    -- Stationary point found.
 Normal termination of Gaussian 16 at Sat Apr  9 23:44:00 2022.
