 Gaussian 16, Revision B.01,
 Gaussian 16:  ES64L-G16RevB.01 20-Dec-2017

 ----------------------------------------------------------------
 # opt=(calcfc,ts,modredundant,noeigentest) freq ub3lyp cc-pvtz+d
 ----------------------------------------------------------------

 --------------------------------
 QOOHisob-OOH-Elim-TS4-b3lyp-c-N2
 --------------------------------
 Symbolic Z-matrix:
 Charge =  0 Multiplicity = 2

 SCF Done:  E(UB3LYP) =  -308.244024009     A.U. after   19 cycles
 SCF Done:  E(UB3LYP) =  -308.243840499     A.U. after   16 cycles
 SCF Done:  E(UB3LYP) =  -308.243837230     A.U. after   12 cycles
 Optimization completed.
    -- Stationary point found.
 Normal termination of Gaussian 16 at Sun Apr 10 12:09:51 2022.

 ---------------------------------------------------------------------
 #N Geom=AllCheck Guess=TCheck SCRF=Check GenChk UB3LYP/CC-pVTZ+d Freq
 ---------------------------------------------------------------------

 Structure from the checkpoint file:  "QOOHisob-OOH-Elim-TS4-b3lyp-c-N2.chk"
 --------------------------------
 QOOHisob-OOH-Elim-TS4-b3lyp-c-N2
 --------------------------------
 Charge =  0 Multiplicity = 2

                         Standard orientation:
 ---------------------------------------------------------------------
 Center     Atomic      Atomic             Coordinates (Angstroms)
 Number     Number       Type             X           Y           Z
 ---------------------------------------------------------------------
      1          6           0        0.070187   -0.537266    0.995685
      2          1           0        0.611884    0.083767    1.694306
      3          1           0        0.054349   -1.594035    1.225013
      4          6           0       -0.951568    0.006922    0.245689
      5          1           0        1.951756    0.770387   -1.193525
      6          6           0       -1.089518    1.487428    0.083045
      7          1           0       -0.922252    1.785568   -0.959046
      8          1           0       -2.103726    1.817719    0.329673
      9          1           0       -0.386937    2.035112    0.708192
     10          6           0       -1.869988   -0.854459   -0.562024
     11          1           0       -1.723492   -0.687467   -1.634888
     12          1           0       -1.715286   -1.913818   -0.364020
     13          1           0       -2.917461   -0.613472   -0.355460
     14          8           0        1.550311   -0.751100   -0.185898
     15          8           0        2.224249    0.463661   -0.317178
 ---------------------------------------------------------------------

 SCF Done:  E(UB3LYP) =  -308.243837230     A.U. after    1 cycles

 The electronic state is 2-A.
 Alpha  occ. eigenvalues --  -19.18251 -19.17064 -10.20113 -10.19565 -10.17775
 Alpha  occ. eigenvalues --  -10.17609  -1.11479  -0.85231  -0.81883  -0.70728
 Alpha  occ. eigenvalues --   -0.69506  -0.54811  -0.51488  -0.47030  -0.46241
 Alpha  occ. eigenvalues --   -0.45482  -0.42660  -0.42110  -0.39991  -0.38422
 Alpha  occ. eigenvalues --   -0.37878  -0.35845  -0.28789  -0.26964  -0.21021
 Alpha virt. eigenvalues --    0.01569   0.02212   0.04562   0.07568   0.07842
 Alpha virt. eigenvalues --    0.09112   0.09537   0.10461   0.11801   0.13240
 Alpha virt. eigenvalues --    0.14451   0.15702   0.21605   0.21767   0.24502

  Beta  occ. eigenvalues --  -19.18004 -19.15615 -10.19745 -10.19322 -10.17821
  Beta  occ. eigenvalues --  -10.17654  -1.10003  -0.83299  -0.80290  -0.70589
  Beta  occ. eigenvalues --   -0.69335  -0.53934  -0.50839  -0.46617  -0.45995
  Beta  occ. eigenvalues --   -0.44100  -0.41984  -0.39673  -0.38954  -0.38029
  Beta  occ. eigenvalues --   -0.37525  -0.35552  -0.26355  -0.25000
  Beta virt. eigenvalues --   -0.09690   0.01824   0.04110   0.04771   0.07630
  Beta virt. eigenvalues --    0.07862   0.09185   0.10103   0.10910   0.12152
  Beta virt. eigenvalues --    0.13497   0.14940   0.15711   0.21756   0.21952

 Mulliken charges and spin densities:
               1          2
     1  C   -0.161342  -0.099242
     2  H    0.130835   0.006025
     3  H    0.119296   0.006479
     4  C    0.089261   0.499611
     5  H    0.225241  -0.002470
     6  C   -0.286923  -0.026316
     7  H    0.088644   0.026181
     8  H    0.104318   0.025129
     9  H    0.105673   0.000211
    10  C   -0.273426  -0.024884
    11  H    0.093963   0.025551
    12  H    0.098664   0.000066
    13  H    0.098262   0.020442
    14  O   -0.231378   0.465737
    15  O   -0.201089   0.077479
 Sum of Mulliken charges =  -0.00000   1.00000

 Dipole moment (field-independent basis, Debye):
    X=             -2.3449    Y=              1.0728    Z=             -0.7295  Tot=              2.6799
 Quadrupole moment (field-independent basis, Debye-Ang):
   XX=            -41.7448   YY=            -36.7492   ZZ=            -35.1072
   XY=              1.9773   XZ=             -1.2454   YZ=             -1.9494

  Exact polarizability:  91.383  -0.749  61.644  -1.789  -2.795  55.815
 Approx polarizability: 133.711  -4.261  87.329  -6.290  -4.829  81.586

 ******    1 imaginary frequencies (negative Signs) ******

                      1                      2                      3
                      A                      A                      A
 Frequencies --   -499.1799                27.6767                97.4718
 Red. masses --     12.0532                 4.3593                 3.3090
 Frc consts  --      1.7696                 0.0020                 0.0185
 IR Inten    --     81.9882                 4.4514                 0.2996

                      4                      5                      6
                      A                      A                      A
 Frequencies --    120.9997               126.7134               173.2424
 Red. masses --      1.0543                 1.5607                 1.8518
 Frc consts  --      0.0091                 0.0148                 0.0327
 IR Inten    --      0.2998                 2.1904                 2.3941

                      7                      8                      9
                      A                      A                      A
 Frequencies --    293.4801               375.2122               418.0195
 Red. masses --      5.1445                 2.0653                 1.1414
 Frc consts  --      0.2611                 0.1713                 0.1175
 IR Inten    --      2.5872                 6.0844               123.9879

                     10                     11                     12
                      A                      A                      A
 Frequencies --    440.4780               456.4588               800.3667
 Red. masses --      2.1470                 2.4236                 3.5745
 Frc consts  --      0.2454                 0.2975                 1.3491
 IR Inten    --      0.8235                 2.5162                 3.8837

                     13                     14                     15
                      A                      A                      A
 Frequencies --    875.0434               936.6090               964.4024
 Red. masses --      1.4248                 2.5085                 1.3906
 Frc consts  --      0.6428                 1.2965                 0.7620
 IR Inten    --     47.8798               148.7505                 0.3425

                     16                     17                     18
                      A                      A                      A
 Frequencies --    982.8232              1031.2558              1057.0041
 Red. masses --      1.4391                 1.1931                 1.6366
 Frc consts  --      0.8190                 0.7476                 1.0773
 IR Inten    --      3.5475                 5.5739                17.0067

                     19                     20                     21
                      A                      A                      A
 Frequencies --   1070.4450              1078.0214              1310.7476
 Red. masses --      1.4462                 1.4547                 2.6076
 Frc consts  --      0.9763                 0.9961                 2.6395
 IR Inten    --      1.7698                 2.9552                 3.3745

                     22                     23                     24
                      A                      A                      A
 Frequencies --   1377.1609              1397.1779              1407.4586
 Red. masses --      1.1150                 1.5910                 1.3433
 Frc consts  --      1.2460                 1.8298                 1.5678
 IR Inten    --     30.3805                22.1908                11.5606

                     25                     26                     27
                      A                      A                      A
 Frequencies --   1415.2549              1466.4683              1477.5072
 Red. masses --      1.2411                 1.0493                 1.0464
 Frc consts  --      1.4646                 1.3295                 1.3458
 IR Inten    --      3.9005                 0.3242                 3.5078

                     28                     29                     30
                      A                      A                      A
 Frequencies --   1483.2692              1498.4608              1555.7415
 Red. masses --      1.0435                 1.0874                 2.0269
 Frc consts  --      1.3526                 1.4386                 2.8903
 IR Inten    --     15.0121                15.7184                28.9167

                     31                     32                     33
                      A                      A                      A
 Frequencies --   2987.5213              2998.0116              3025.3999
 Red. masses --      1.0458                 1.0425                 1.0911
 Frc consts  --      5.4995                 5.5206                 5.8843
 IR Inten    --     19.3307                37.9428                13.6569

                     34                     35                     36
                      A                      A                      A
 Frequencies --   3032.5624              3104.3266              3109.1281
 Red. masses --      1.0952                 1.0967                 1.0958
 Frc consts  --      5.9345                 6.2267                 6.2413
 IR Inten    --     26.0634                19.0621                13.5338

                     37                     38                     39
                      A                      A                      A
 Frequencies --   3139.4021              3223.2736              3714.8010
 Red. masses --      1.0572                 1.1171                 1.0687
 Frc consts  --      6.1391                 6.8379                 8.6888
 IR Inten    --      9.5731                 6.7822                27.8818

 - Thermochemistry -
 -------------------
 Temperature   298.150 Kelvin.  Pressure   1.00000 Atm.
 Atom     1 has atomic number  6 and mass  12.00000

 Molecular mass:    89.06025 amu.
 Principal axes and moments of inertia in atomic units:
                           1         2         3
     Eigenvalues --   351.95482 847.66133 992.98668
           X            0.99980   0.00972   0.01768
           Y           -0.00957   0.99992  -0.00854
           Z           -0.01776   0.00837   0.99981
 This molecule is an asymmetric top.
 Rotational symmetry number  1.
 Rotational temperatures (Kelvin)      0.24609     0.10218     0.08723
 Rotational constants (GHZ):           5.12776     2.12908     1.81749
    1 imaginary frequencies ignored.
 Zero-point vibrational energy     323287.2 (Joules/Mol)
                                   77.26749 (Kcal/Mol)
 Warning -- explicit consideration of  10 degrees of freedom as
           vibrations may cause significant error
 Vibrational temperatures:     39.82   140.24   174.09   182.31   249.26
          (Kelvin)            422.25   539.85   601.44   633.75   656.74
                             1151.55  1258.99  1347.57  1387.56  1414.06
                             1483.75  1520.79  1540.13  1551.03  1885.87
                             1981.43  2010.23  2025.02  2036.24  2109.92
                             2125.80  2134.09  2155.95  2238.37  4298.38
                             4313.47  4352.88  4363.18  4466.43  4473.34
                             4516.90  4637.57  5344.77

 Zero-point correction=                           0.123134 (Hartree/Particle)
 Thermal correction to Energy=                    0.131607
 Thermal correction to Enthalpy=                  0.132551
 Thermal correction to Gibbs Free Energy=         0.088808
 Sum of electronic and zero-point Energies=           -308.120704
 Sum of electronic and thermal Energies=              -308.112231
 Sum of electronic and thermal Enthalpies=            -308.111286
 Sum of electronic and thermal Free Energies=         -308.155029

                     E (Thermal)             CV                S
                      KCal/Mol        Cal/Mol-Kelvin    Cal/Mol-Kelvin
 Total                   82.584             27.669             92.065
 Electronic               0.000              0.000              1.377
 Translational            0.889              2.981             39.373
 Rotational               0.889              2.981             27.185
 Vibrational             80.807             21.708             24.130
 Vibration     1          0.593              1.984              5.989
 Vibration     2          0.603              1.951              3.504
 Vibration     3          0.609              1.932              3.084
 Vibration     4          0.611              1.926              2.995
 Vibration     5          0.627              1.875              2.400
 Vibration     6          0.688              1.686              1.454
 Vibration     7          0.746              1.523              1.058
 Vibration     8          0.781              1.431              0.899
 Vibration     9          0.800              1.382              0.825
 Vibration    10          0.815              1.347              0.776

 Optimization completed.
    -- Stationary point found.
 Normal termination of Gaussian 16 at Sun Apr 10 12:13:54 2022.
