 Gaussian 16, Revision C.01,
 Gaussian 16:  EM64L-G16RevC.01  3-Jul-2019

 ----------------------------------------------------------------------
 #p B3LYP/cc-PVTZ+d scf(verytight, maxcycles=1000) opt(qst2,calcfc, max
 cyc=1000) freq(hpmodes) int(grid=ultrafine)
 ----------------------------------------------------------------------

 --------
 Reactant
 --------
 Symbolic Z-matrix:
 Charge =  0 Multiplicity = 2

 ---
 Pdt
 ---
 Symbolic Z-matrix:
 Charge =  0 Multiplicity = 2

 SCF Done:  E(UB3LYP) =  -308.164884305     A.U. after   21 cycles
 SCF Done:  E(UB3LYP) =  -308.176302430     A.U. after   19 cycles
 SCF Done:  E(UB3LYP) =  -308.189499314     A.U. after   18 cycles
 SCF Done:  E(UB3LYP) =  -308.202828098     A.U. after   17 cycles
 SCF Done:  E(UB3LYP) =  -308.216132833     A.U. after   18 cycles
 SCF Done:  E(UB3LYP) =  -308.224833466     A.U. after   17 cycles
 SCF Done:  E(UB3LYP) =  -308.229384854     A.U. after   17 cycles
 SCF Done:  E(UB3LYP) =  -308.230226855     A.U. after   17 cycles
 SCF Done:  E(UB3LYP) =  -308.230340957     A.U. after   14 cycles
 SCF Done:  E(UB3LYP) =  -308.230364731     A.U. after   13 cycles
 SCF Done:  E(UB3LYP) =  -308.229268621     A.U. after   15 cycles
 SCF Done:  E(UB3LYP) =  -308.228535513     A.U. after   15 cycles
 SCF Done:  E(UB3LYP) =  -308.229801107     A.U. after   15 cycles
 SCF Done:  E(UB3LYP) =  -308.229934026     A.U. after   15 cycles
 SCF Done:  E(UB3LYP) =  -308.228440602     A.U. after   15 cycles
 SCF Done:  E(UB3LYP) =  -308.230152920     A.U. after   15 cycles
 SCF Done:  E(UB3LYP) =  -308.230355949     A.U. after   14 cycles
 SCF Done:  E(UB3LYP) =  -308.230365534     A.U. after   12 cycles
 SCF Done:  E(UB3LYP) =  -308.230365566     A.U. after    9 cycles
 Optimization completed.
    -- Stationary point found.
 Normal termination of Gaussian 16 at Wed May  4 21:47:58 2022.

 ---------------------------------------------------------------------
 #P Geom=AllCheck Guess=TCheck SCRF=Check GenChk UB3LYP/CC-pVTZ+d Freq
 ---------------------------------------------------------------------

 Structure from the checkpoint file:  "TS_01.chk"
 --------
 Reactant
 --------
 Charge =  0 Multiplicity = 2

                         Standard orientation:
 ---------------------------------------------------------------------
 Center     Atomic      Atomic             Coordinates (Angstroms)
 Number     Number       Type             X           Y           Z
 ---------------------------------------------------------------------
      1          6           0        1.729982   -1.026856   -0.142334
      2          6           0        0.632718   -0.006702   -0.035631
      3          6           0       -0.496792   -0.299777    0.966070
      4          6           0        1.050402    1.437910   -0.120253
      5          1           0        1.333278   -2.039470   -0.223676
      6          1           0        2.376129   -0.998500    0.744486
      7          1           0        2.369501   -0.832714   -1.004641
      8          1           0       -0.304917   -0.199741   -0.981413
      9          1           0        1.667877    1.706944    0.746098
     10          1           0        0.184029    2.098691   -0.128733
     11          1           0        1.646542    1.629578   -1.013186
     12          8           0       -1.673057    0.198285    0.336461
     13          8           0       -1.550679   -0.303552   -0.986789
     14          1           0       -0.402736    0.226914    1.918965
     15          1           0       -0.577677   -1.377008    1.137599
 ---------------------------------------------------------------------

 SCF Done:  E(UB3LYP) =  -308.230365566     A.U. after    1 cycles

 The electronic state is 2-A.
 Alpha  occ. eigenvalues --  -19.19092 -19.18117 -10.23661 -10.21767 -10.18534
 Alpha  occ. eigenvalues --  -10.18049  -1.12971  -0.87894  -0.82665  -0.71329
 Alpha  occ. eigenvalues --   -0.69099  -0.57744  -0.52914  -0.49731  -0.48025
 Alpha  occ. eigenvalues --   -0.44696  -0.43498  -0.41569  -0.41060  -0.38819
 Alpha  occ. eigenvalues --   -0.37035  -0.35961  -0.33608  -0.25752  -0.24096
 Alpha virt. eigenvalues --    0.01960   0.03990   0.06583   0.07039   0.07630
 Alpha virt. eigenvalues --    0.08958   0.10110   0.12261   0.12877   0.13206
 Alpha virt. eigenvalues --    0.14297   0.14975   0.18495   0.21173   0.24641

  Beta  occ. eigenvalues --  -19.18927 -19.16827 -10.23666 -10.20940 -10.18563
  Beta  occ. eigenvalues --  -10.18068  -1.11722  -0.85840  -0.81410  -0.71149
  Beta  occ. eigenvalues --   -0.68621  -0.56257  -0.51036  -0.49247  -0.47445
  Beta  occ. eigenvalues --   -0.44010  -0.43048  -0.40571  -0.40349  -0.37881
  Beta  occ. eigenvalues --   -0.36210  -0.34618  -0.32581  -0.24106
  Beta virt. eigenvalues --   -0.12666   0.02176   0.04620   0.06677   0.07165
  Beta virt. eigenvalues --    0.07805   0.09025   0.10212   0.12497   0.13178
  Beta virt. eigenvalues --    0.13692   0.14791   0.15823   0.18851   0.21387

 Mulliken charges and spin densities:
               1          2
     1  C   -0.296875  -0.015657
     2  C   -0.004083   0.488172
     3  C    0.040117   0.005358
     4  C   -0.298785  -0.011839
     5  H    0.107362   0.002825
     6  H    0.096331   0.039864
     7  H    0.105043   0.007158
     8  H    0.170973  -0.037922
     9  H    0.090745   0.035426
    10  H    0.120289   0.001572
    11  H    0.102677   0.004758
    12  O   -0.161588   0.044048
    13  O   -0.228138   0.426137
    14  H    0.078640   0.008302
    15  H    0.077291   0.001798
 Sum of Mulliken charges =  -0.00000   1.00000

 Dipole moment (field-independent basis, Debye):
    X=              3.3137    Y=             -0.1816    Z=              1.2678  Tot=              3.5526
 Quadrupole moment (field-independent basis, Debye-Ang):
   XX=            -42.4469   YY=            -37.2761   ZZ=            -37.0892
   XY=              0.1663   XZ=             -1.9184   YZ=             -0.4390

  Exact polarizability:      77.903       2.116      57.221       2.072       0.562      56.341
 Approx polarizability:     111.700       2.038      76.685       7.860       4.398      89.490

 ******    1 imaginary frequencies (negative Signs) ******

                      1                      2                      3
                      A                      A                      A
 Frequencies --  -2074.1999               131.0424               187.6082
 Red. masses --      1.1064                 3.2668                 1.0609
 Frc consts  --      2.8046                 0.0331                 0.0220
 IR Inten    --    894.1074                 3.3405                 0.0450

                      4                      5                      6
                      A                      A                      A
 Frequencies --    220.8176               259.6493               282.2091
 Red. masses --      1.0586                 3.8490                 3.1126
 Frc consts  --      0.0304                 0.1529                 0.1461
 IR Inten    --      0.0090                 1.5124                 0.3264

                      7                      8                      9
                      A                      A                      A
 Frequencies --    363.7549               401.9509               549.7213
 Red. masses --      2.2096                 2.0235                 3.4782
 Frc consts  --      0.1723                 0.1926                 0.6193
 IR Inten    --      0.3854                 1.0651                 0.6385

                     10                     11                     12
                      A                      A                      A
 Frequencies --    660.9296               815.6935               899.6138
 Red. masses --      5.6109                 3.0731                 5.4820
 Frc consts  --      1.4441                 1.2047                 2.6140
 IR Inten    --      2.1230                 3.3877                31.4374

                     13                     14                     15
                      A                      A                      A
 Frequencies --    933.3573               948.1618               968.9846
 Red. masses --      1.2746                 1.7395                 2.6283
 Frc consts  --      0.6542                 0.9214                 1.4540
 IR Inten    --      1.0231                 4.0238                 6.1682

                     16                     17                     18
                      A                      A                      A
 Frequencies --    978.9501              1014.4557              1127.7462
 Red. masses --      1.8946                 1.6893                 1.4424
 Frc consts  --      1.0697                 1.0243                 1.0808
 IR Inten    --      3.8564                 2.1922                11.1205

                     19                     20                     21
                      A                      A                      A
 Frequencies --   1138.4629              1227.3442              1252.0236
 Red. masses --      1.5326                 1.4529                 2.4599
 Frc consts  --      1.1704                 1.2895                 2.2719
 IR Inten    --     23.6165                 1.4414                12.6227

                     22                     23                     24
                      A                      A                      A
 Frequencies --   1282.2910              1351.4149              1400.4985
 Red. masses --      1.8435                 1.3510                 1.2812
 Frc consts  --      1.7859                 1.4537                 1.4805
 IR Inten    --      2.7292                 3.6127                11.7592

                     25                     26                     27
                      A                      A                      A
 Frequencies --   1414.2542              1471.4576              1477.7350
 Red. masses --      1.2185                 1.0483                 1.0589
 Frc consts  --      1.4360                 1.3373                 1.3624
 IR Inten    --      1.9818                 1.9116                 1.5348

                     28                     29                     30
                      A                      A                      A
 Frequencies --   1491.3574              1491.6597              1499.8779
 Red. masses --      1.0565                 1.0729                 1.0726
 Frc consts  --      1.3845                 1.4066                 1.4216
 IR Inten    --      6.4650                 4.6547                 7.0177

                     31                     32                     33
                      A                      A                      A
 Frequencies --   1720.4371              2982.0842              2987.2194
 Red. masses --      1.0387                 1.0526                 1.0530
 Frc consts  --      1.8114                 5.5153                 5.5364
 IR Inten    --     16.4434                 6.1484                30.3319

                     34                     35                     36
                      A                      A                      A
 Frequencies --   3010.8712              3056.8370              3065.2979
 Red. masses --      1.0569                 1.0780                 1.0824
 Frc consts  --      5.6450                 5.9349                 5.9919
 IR Inten    --     46.9053                12.6957                16.1666

                     37                     38                     39
                      A                      A                      A
 Frequencies --   3066.2637              3095.5233              3106.0826
 Red. masses --      1.1031                 1.1023                 1.1019
 Frc consts  --      6.1108                 6.2233                 6.2636
 IR Inten    --     25.4975                19.5661                11.0552

 - Thermochemistry -
 -------------------
 Temperature   298.150 Kelvin.  Pressure   1.00000 Atm.
 Atom     1 has atomic number  6 and mass  12.00000

 Molecular mass:    89.06025 amu.
 Principal axes and moments of inertia in atomic units:
                           1         2         3
     Eigenvalues --   345.58816 703.06077 776.31941
           X            0.99980  -0.00476  -0.01935
           Y            0.00380   0.99877  -0.04945
           Z            0.01956   0.04937   0.99859
 This molecule is an asymmetric top.
 Rotational symmetry number  1.
 Rotational temperatures (Kelvin)      0.25063     0.12320     0.11157
 Rotational constants (GHZ):           5.22223     2.56698     2.32474
    1 imaginary frequencies ignored.
 Zero-point vibrational energy     319006.0 (Joules/Mol)
                                   76.24427 (Kcal/Mol)
 Warning -- explicit consideration of   8 degrees of freedom as
           vibrations may cause significant error
 Vibrational temperatures:    188.54   269.93   317.71   373.58   406.04
          (Kelvin)            523.36   578.32   790.93   950.93  1173.60
                             1294.34  1342.89  1364.19  1394.15  1408.49
                             1459.58  1622.58  1637.99  1765.87  1801.38
                             1844.93  1944.38  2015.01  2034.80  2117.10
                             2126.13  2145.73  2146.17  2157.99  2475.33
                             4290.55  4297.94  4331.97  4398.11  4410.28
                             4411.67  4453.77  4468.96

 Zero-point correction=                           0.121503 (Hartree/Particle)
 Thermal correction to Energy=                    0.128483
 Thermal correction to Enthalpy=                  0.129428
 Thermal correction to Gibbs Free Energy=         0.090482
 Sum of electronic and zero-point Energies=           -308.108863
 Sum of electronic and thermal Energies=              -308.101882
 Sum of electronic and thermal Enthalpies=            -308.100938
 Sum of electronic and thermal Free Energies=         -308.139884

                     E (Thermal)             CV                S
                      KCal/Mol        Cal/Mol-Kelvin    Cal/Mol-Kelvin
 Total                   80.625             25.040             81.968
 Electronic               0.000              0.000              1.377
 Translational            0.889              2.981             39.373
 Rotational               0.889              2.981             26.736
 Vibrational             78.847             19.078             14.482
 Vibration     1          0.612              1.922              2.931
 Vibration     2          0.632              1.857              2.251
 Vibration     3          0.648              1.809              1.952
 Vibration     4          0.668              1.746              1.664
 Vibration     5          0.681              1.707              1.520
 Vibration     6          0.737              1.547              1.106
 Vibration     7          0.768              1.466              0.956
 Vibration     8          0.905              1.140              0.545

 Optimization completed.
    -- Stationary point found.
 Normal termination of Gaussian 16 at Wed May  4 21:59:43 2022.
